 Gaussian 09, Revision D.01,
 Gaussian 09:  ES64L-G09RevD.01 24-Apr-2013

 ----------------------------------------------------------------------
 #p CAM-B3LYP/6-31G(d,p) SCRF=(PCM,Solvent=Generic,Read) NoSymm out=wfn
 ----------------------------------------------------------------------

 --------------------
 Title A1528681610_p1
 --------------------
 Symbolic Z-matrix:
 Charge =  1 Multiplicity = 2

                          Input orientation:
 ---------------------------------------------------------------------
 Center     Atomic      Atomic             Coordinates (Angstroms)
 Number     Number       Type             X           Y           Z
 ---------------------------------------------------------------------
      1          6           0       -1.603120    4.918720    0.668547
      2          6           0       -1.931464    3.780446    0.866853
      3          6           0       -2.331232    2.383764    1.109008
      4          7           0       -1.499590    1.475444    0.332519
      5          6           0       -1.940350    1.094149   -0.915258
      6          8           0       -2.976711    1.537119   -1.411514
      7          7           0       -1.158502    0.159815   -1.565360
      8          6           0       -1.628556   -0.361155   -2.848762
      9          6           0       -1.126116    0.480896   -4.013081
     10          6           0        0.072736   -0.255335   -1.098311
     11          8           0        0.712400   -1.134639   -1.675465
     12          7           0        0.526003    0.349323    0.047125
     13          6           0        1.796021   -0.100616    0.597562
     14          9           0        2.350174    0.926465    1.304950
     15          9           0        2.681598   -0.284237   -0.425399
     16          6           0        1.726374   -1.380927    1.470689
     17          9           0        0.982427   -1.126902    2.587071
     18          8           0        1.010929   -2.405125    0.769903
     19          6           0        1.108410   -3.665969    1.376057
     20          9           0        0.932558   -3.580235    2.703403
     21          9           0        2.306868   -4.203088    1.099067
     22          9           0        0.149321   -4.459530    0.863768
     23          6           0        3.178770   -1.680168    1.868895
     24          9           0        3.793894   -0.629510    2.453624
     25          9           0        3.929009   -2.048025    0.806069
     26          9           0        3.248012   -2.698769    2.760959
     27          6           0       -0.316077    1.036791    0.883536
     28          8           0       -0.045202    1.231332    2.067495
     29          1           0       -1.312841    5.929422    0.493641
     30          1           0       -2.242384    2.153722    2.176612
     31          1           0       -3.385968    2.247923    0.844649
     32          1           0       -2.724212   -0.382392   -2.859525
     33          1           0       -1.288908   -1.395452   -2.973790
     34          1           0       -0.031809    0.496076   -4.045469
     35          1           0       -1.471642    1.516398   -3.928940
     36          1           0       -1.490824    0.074269   -4.961281
 ---------------------------------------------------------------------

 SCF Done:  E(UCAM-B3LYP) =  -1824.88403102     A.U. after   31 cycles

 Alpha  occ. eigenvalues --  -24.85018 -24.85013 -24.84847 -24.84801 -24.84768
 Alpha  occ. eigenvalues --  -24.84704 -24.84589 -24.84364 -24.84050 -19.34671
 Alpha  occ. eigenvalues --  -19.28173 -19.27595 -19.26022 -14.55969 -14.55559
 Alpha  occ. eigenvalues --  -14.53014 -10.60996 -10.56849 -10.55480 -10.50770
 Alpha  occ. eigenvalues --  -10.49837 -10.48625 -10.47990 -10.47528 -10.46948
 Alpha  occ. eigenvalues --  -10.44166 -10.33553 -10.27833  -1.44606  -1.43150
 Alpha  occ. eigenvalues --   -1.41025  -1.37402  -1.34893  -1.34663  -1.34297
 Alpha  occ. eigenvalues --   -1.33468  -1.33381  -1.26090  -1.22263  -1.21098
 Alpha  occ. eigenvalues --   -1.20326  -1.12981  -1.11592  -1.09234  -1.04480
 Alpha  occ. eigenvalues --   -0.95634  -0.93966  -0.89061  -0.87034  -0.83661
 Alpha  occ. eigenvalues --   -0.82499  -0.81204  -0.78496  -0.77303  -0.76229
 Alpha  occ. eigenvalues --   -0.74982  -0.74316  -0.73522  -0.72078  -0.71350
 Alpha  occ. eigenvalues --   -0.70179  -0.69938  -0.69332  -0.68701  -0.68075
 Alpha  occ. eigenvalues --   -0.67067  -0.66146  -0.63356  -0.62890  -0.61481
 Alpha  occ. eigenvalues --   -0.60570  -0.59038  -0.58943  -0.58556  -0.57831
 Alpha  occ. eigenvalues --   -0.57755  -0.57190  -0.56980  -0.56850  -0.56523
 Alpha  occ. eigenvalues --   -0.55985  -0.55845  -0.55110  -0.54730  -0.54111
 Alpha  occ. eigenvalues --   -0.53666  -0.53376  -0.52884  -0.52662  -0.52493
 Alpha  occ. eigenvalues --   -0.52018  -0.51760  -0.51602  -0.51309  -0.50522
 Alpha  occ. eigenvalues --   -0.50312  -0.49034  -0.47583  -0.47126  -0.46279
 Alpha  occ. eigenvalues --   -0.44487  -0.43698  -0.42717  -0.41999  -0.41310
 Alpha  occ. eigenvalues --   -0.38933  -0.38727
 Alpha virt. eigenvalues --   -0.06351  -0.05332  -0.02589  -0.01283   0.03843
 Alpha virt. eigenvalues --    0.06476   0.07570   0.09432   0.10624   0.11580
 Alpha virt. eigenvalues --    0.12891   0.13700   0.14911   0.15637   0.16598

  Beta  occ. eigenvalues --  -24.85017 -24.85013 -24.84847 -24.84800 -24.84768
  Beta  occ. eigenvalues --  -24.84704 -24.84589 -24.84363 -24.84050 -19.34671
  Beta  occ. eigenvalues --  -19.28123 -19.27533 -19.26011 -14.55976 -14.55558
  Beta  occ. eigenvalues --  -14.53000 -10.60996 -10.56849 -10.55480 -10.50770
  Beta  occ. eigenvalues --  -10.49841 -10.48631 -10.47992 -10.46960 -10.46126
  Beta  occ. eigenvalues --  -10.44131 -10.33553 -10.27832  -1.44605  -1.43150
  Beta  occ. eigenvalues --   -1.41024  -1.37402  -1.34893  -1.34663  -1.34296
  Beta  occ. eigenvalues --   -1.33468  -1.33380  -1.26057  -1.22262  -1.21010
  Beta  occ. eigenvalues --   -1.20289  -1.12883  -1.11511  -1.09161  -1.01179
  Beta  occ. eigenvalues --   -0.95473  -0.93158  -0.89007  -0.87007  -0.83657
  Beta  occ. eigenvalues --   -0.82431  -0.81129  -0.78449  -0.77190  -0.76039
  Beta  occ. eigenvalues --   -0.74400  -0.74100  -0.73497  -0.72067  -0.71337
  Beta  occ. eigenvalues --   -0.70105  -0.69931  -0.69056  -0.68616  -0.68058
  Beta  occ. eigenvalues --   -0.67015  -0.66068  -0.63188  -0.61485  -0.60962
  Beta  occ. eigenvalues --   -0.60157  -0.58992  -0.58922  -0.58553  -0.57814
  Beta  occ. eigenvalues --   -0.57730  -0.57125  -0.56877  -0.56586  -0.56471
  Beta  occ. eigenvalues --   -0.55951  -0.55565  -0.55103  -0.54617  -0.54104
  Beta  occ. eigenvalues --   -0.53596  -0.53334  -0.52859  -0.52443  -0.51987
  Beta  occ. eigenvalues --   -0.51691  -0.51308  -0.50672  -0.50487  -0.50309
  Beta  occ. eigenvalues --   -0.49008  -0.47579  -0.47107  -0.46277  -0.44463
  Beta  occ. eigenvalues --   -0.43377  -0.42468  -0.41857  -0.41273  -0.38840
  Beta  occ. eigenvalues --   -0.38479
  Beta virt. eigenvalues --   -0.28757  -0.04599  -0.02638  -0.01252  -0.00545
  Beta virt. eigenvalues --    0.03849   0.06590   0.08296   0.09639   0.10866
  Beta virt. eigenvalues --    0.11774   0.13240   0.13803   0.15019   0.15644

 Mulliken charges and spin densities:
               1          2
     1  C   -0.049590   0.527487
     2  C    0.484696   0.371725
     3  C   -0.215283   0.008864
     4  N   -0.576721   0.000013
     5  C    0.850199  -0.004396
     6  O   -0.501178   0.022816
     7  N   -0.570836   0.006725
     8  C   -0.073233  -0.000002
     9  C   -0.327737   0.000743
    10  C    0.855027  -0.001748
    11  O   -0.489495   0.004542
    12  N   -0.641518   0.000599
    13  C    0.761812  -0.000082
    14  F   -0.257369   0.000340
    15  F   -0.249667   0.000129
    16  C    0.438300  -0.000013
    17  F   -0.255871   0.000012
    18  O   -0.507388   0.000001
    19  C    0.997947  -0.000001
    20  F   -0.242314   0.000000
    21  F   -0.240804   0.000000
    22  F   -0.238670   0.000000
    23  C    0.815440  -0.000004
    24  F   -0.243433   0.000000
    25  F   -0.243918   0.000001
    26  F   -0.257513   0.000000
    27  C    0.845354  -0.002957
    28  O   -0.482157   0.017822
    29  H    0.323131  -0.018289
    30  H    0.285046   0.033304
    31  H    0.283146   0.032210
    32  H    0.161413   0.000220
    33  H    0.168139  -0.000031
    34  H    0.131600  -0.000030
    35  H    0.124403  -0.000064
    36  H    0.139045   0.000063
 Sum of Mulliken charges =   1.00000   1.00000

 Dipole moment (field-independent basis, Debye):
    X=            -10.3400    Y=             18.1593    Z=              1.8062  Tot=             20.9747
 Quadrupole moment (field-independent basis, Debye-Ang):
   XX=           -135.8702   YY=            -63.7652   ZZ=           -142.5771
   XY=            -26.8529   XZ=             -8.1206   YZ=             12.6147

 Normal termination of Gaussian 09 at Sun Mar  3 17:37:02 2024.
