 Gaussian 09, Revision D.01,
 Gaussian 09:  ES64L-G09RevD.01 24-Apr-2013

 ----------------------------------------------------------------------
 #p CAM-B3LYP/6-31G(d,p) SCRF=(PCM,Solvent=Generic,Read) NoSymm out=wfn
 ----------------------------------------------------------------------

 -------------------
 Title A1528681610_0
 -------------------
 Symbolic Z-matrix:
 Charge =  0 Multiplicity = 1

                          Input orientation:
 ---------------------------------------------------------------------
 Center     Atomic      Atomic             Coordinates (Angstroms)
 Number     Number       Type             X           Y           Z
 ---------------------------------------------------------------------
      1          6           0       -1.603120    4.918720    0.668547
      2          6           0       -1.931464    3.780446    0.866853
      3          6           0       -2.331232    2.383764    1.109008
      4          7           0       -1.499590    1.475444    0.332519
      5          6           0       -1.940350    1.094149   -0.915258
      6          8           0       -2.976711    1.537119   -1.411514
      7          7           0       -1.158502    0.159815   -1.565360
      8          6           0       -1.628556   -0.361155   -2.848762
      9          6           0       -1.126116    0.480896   -4.013081
     10          6           0        0.072736   -0.255335   -1.098311
     11          8           0        0.712400   -1.134639   -1.675465
     12          7           0        0.526003    0.349323    0.047125
     13          6           0        1.796021   -0.100616    0.597562
     14          9           0        2.350174    0.926465    1.304950
     15          9           0        2.681598   -0.284237   -0.425399
     16          6           0        1.726374   -1.380927    1.470689
     17          9           0        0.982427   -1.126902    2.587071
     18          8           0        1.010929   -2.405125    0.769903
     19          6           0        1.108410   -3.665969    1.376057
     20          9           0        0.932558   -3.580235    2.703403
     21          9           0        2.306868   -4.203088    1.099067
     22          9           0        0.149321   -4.459530    0.863768
     23          6           0        3.178770   -1.680168    1.868895
     24          9           0        3.793894   -0.629510    2.453624
     25          9           0        3.929009   -2.048025    0.806069
     26          9           0        3.248012   -2.698769    2.760959
     27          6           0       -0.316077    1.036791    0.883536
     28          8           0       -0.045202    1.231332    2.067495
     29          1           0       -1.312841    5.929422    0.493641
     30          1           0       -2.242384    2.153722    2.176612
     31          1           0       -3.385968    2.247923    0.844649
     32          1           0       -2.724212   -0.382392   -2.859525
     33          1           0       -1.288908   -1.395452   -2.973790
     34          1           0       -0.031809    0.496076   -4.045469
     35          1           0       -1.471642    1.516398   -3.928940
     36          1           0       -1.490824    0.074269   -4.961281
 ---------------------------------------------------------------------

 SCF Done:  E(RCAM-B3LYP) =  -1825.19864032     A.U. after   13 cycles

 Alpha  occ. eigenvalues --  -24.83624 -24.83502 -24.83399 -24.83245 -24.82918
 Alpha  occ. eigenvalues --  -24.82629 -24.82625 -24.82565 -24.82543 -19.32951
 Alpha  occ. eigenvalues --  -19.23494 -19.23009 -19.22971 -14.52156 -14.50237
 Alpha  occ. eigenvalues --  -14.49525 -10.59553 -10.55281 -10.53008 -10.48824
 Alpha  occ. eigenvalues --  -10.45331 -10.44953 -10.44196 -10.34275 -10.31160
 Alpha  occ. eigenvalues --  -10.27533 -10.26740 -10.25765  -1.43208  -1.41640
 Alpha  occ. eigenvalues --   -1.38744  -1.35486  -1.33528  -1.33264  -1.32644
 Alpha  occ. eigenvalues --   -1.32033  -1.31268  -1.21918  -1.20491  -1.16792
 Alpha  occ. eigenvalues --   -1.16588  -1.08814  -1.06823  -1.05337  -0.93366
 Alpha  occ. eigenvalues --   -0.88884  -0.86173  -0.84147  -0.81882  -0.81283
 Alpha  occ. eigenvalues --   -0.78511  -0.77651  -0.75492  -0.73635  -0.72839
 Alpha  occ. eigenvalues --   -0.72428  -0.71350  -0.70410  -0.69603  -0.68422
 Alpha  occ. eigenvalues --   -0.67548  -0.66766  -0.66234  -0.64404  -0.62907
 Alpha  occ. eigenvalues --   -0.61365  -0.59855  -0.59368  -0.57503  -0.57306
 Alpha  occ. eigenvalues --   -0.56990  -0.56182  -0.56001  -0.55644  -0.55410
 Alpha  occ. eigenvalues --   -0.54943  -0.54746  -0.54209  -0.54043  -0.53571
 Alpha  occ. eigenvalues --   -0.53242  -0.52917  -0.52228  -0.52164  -0.51761
 Alpha  occ. eigenvalues --   -0.50833  -0.50530  -0.50334  -0.50244  -0.49923
 Alpha  occ. eigenvalues --   -0.49665  -0.49404  -0.48821  -0.48597  -0.46379
 Alpha  occ. eigenvalues --   -0.45670  -0.44882  -0.44458  -0.42117  -0.39515
 Alpha  occ. eigenvalues --   -0.39054  -0.37915  -0.37068  -0.35666  -0.35218
 Alpha  occ. eigenvalues --   -0.34693  -0.34119
 Alpha virt. eigenvalues --    0.01394   0.02214   0.05929   0.08396   0.09245
 Alpha virt. eigenvalues --    0.09932   0.12871   0.14290   0.15006   0.17046
 Alpha virt. eigenvalues --    0.17587   0.17960   0.18286   0.19315   0.20175

 Mulliken charges:
               1
     1  C   -0.420374
     2  C    0.274841
     3  C   -0.177298
     4  N   -0.564376
     5  C    0.832688
     6  O   -0.519922
     7  N   -0.571132
     8  C   -0.065010
     9  C   -0.326650
    10  C    0.844710
    11  O   -0.512106
    12  N   -0.639059
    13  C    0.761114
    14  F   -0.258986
    15  F   -0.255567
    16  C    0.437282
    17  F   -0.255820
    18  O   -0.506028
    19  C    0.995766
    20  F   -0.243367
    21  F   -0.243252
    22  F   -0.240278
    23  C    0.812092
    24  F   -0.243986
    25  F   -0.246220
    26  F   -0.260538
    27  C    0.829390
    28  O   -0.502047
    29  H    0.191232
    30  H    0.192877
    31  H    0.190983
    32  H    0.152526
    33  H    0.154837
    34  H    0.126466
    35  H    0.128037
    36  H    0.127177
 Sum of Mulliken charges =   0.00000

 Dipole moment (field-independent basis, Debye):
    X=             -2.2823    Y=              0.7092    Z=             -1.2797  Tot=              2.7110
 Quadrupole moment (field-independent basis, Debye-Ang):
   XX=           -156.8969   YY=           -146.6818   ZZ=           -152.5884
   XY=              5.2780   XZ=             -3.0995   YZ=             -1.1978

 Normal termination of Gaussian 09 at Sun Mar  3 17:36:11 2024.
