 Gaussian 09, Revision D.01,
 Gaussian 09:  ES64L-G09RevD.01 24-Apr-2013

 ----------------------------------------------------------------------
 #p CAM-B3LYP/6-31G(d,p) SCRF=(PCM,Solvent=Generic,Read) NoSymm out=wfn
 ----------------------------------------------------------------------

 ------------
 Title S0_neu
 ------------
 Symbolic Z-matrix:
 Charge =  0 Multiplicity = 1

                          Input orientation:
 ---------------------------------------------------------------------
 Center     Atomic      Atomic             Coordinates (Angstroms)
 Number     Number       Type             X           Y           Z
 ---------------------------------------------------------------------
      1          9           0       -0.142608   -0.067562    1.357365
      2          6           0       -0.435954   -0.141669    0.028128
      3          6           0       -1.078992    1.147348   -0.442778
      4          9           0       -0.165069    2.150578   -0.326229
      5          6           0       -2.345518    1.519488    0.324177
      6          9           0       -2.824099    2.724160   -0.066332
      7          9           0       -3.335937    0.622451    0.126864
      8          9           0       -2.122680    1.588351    1.655414
      9          9           0       -1.352356    1.080713   -1.774689
     10          6           0        0.843461   -0.529506   -0.726716
     11          8           0        0.813247   -1.969639   -0.940299
     12          6           0       -0.293270   -2.444138   -0.191541
     13          9           0        0.159377   -2.693475    1.055475
     14          9           0       -0.731883   -3.601048   -0.716531
     15          6           0       -1.312375   -1.336011   -0.213799
     16          9           0       -1.909098   -1.254899   -1.426662
     17          9           0       -2.285942   -1.463627    0.704035
     18          6           0        2.185709   -0.208649   -0.044383
     19          9           0        3.192563   -0.712261   -0.827217
     20          6           0        2.447771    1.262153    0.213117
     21          9           0        1.580597    1.767918    1.120214
     22          9           0        2.339133    2.000068   -0.913134
     23          9           0        3.690139    1.469409    0.711320
     24          9           0        2.264337   -0.906364    1.128540
     25          9           0        0.819447   -0.003790   -1.976203
 ---------------------------------------------------------------------

 SCF Done:  E(RCAM-B3LYP) =  -1976.96716617     A.U. after   12 cycles

 Alpha  occ. eigenvalues --  -24.84239 -24.84149 -24.83994 -24.83935 -24.83764
 Alpha  occ. eigenvalues --  -24.83713 -24.83618 -24.83586 -24.83519 -24.83476
 Alpha  occ. eigenvalues --  -24.83466 -24.83321 -24.83220 -24.83129 -24.83092
 Alpha  occ. eigenvalues --  -24.83053 -19.32264 -10.55729 -10.55343 -10.53190
 Alpha  occ. eigenvalues --  -10.50404 -10.49925 -10.49617 -10.48675 -10.44153
 Alpha  occ. eigenvalues --   -1.42750  -1.42188  -1.41179  -1.39239  -1.38834
 Alpha  occ. eigenvalues --   -1.38257  -1.36647  -1.36314  -1.33624  -1.33445
 Alpha  occ. eigenvalues --   -1.33090  -1.32866  -1.32768  -1.32594  -1.32049
 Alpha  occ. eigenvalues --   -1.31536  -1.20553  -0.98421  -0.93228  -0.90837
 Alpha  occ. eigenvalues --   -0.86975  -0.81957  -0.78517  -0.76977  -0.75858
 Alpha  occ. eigenvalues --   -0.72814  -0.72656  -0.71129  -0.70736  -0.70457
 Alpha  occ. eigenvalues --   -0.69573  -0.69447  -0.69368  -0.68654  -0.67856
 Alpha  occ. eigenvalues --   -0.67039  -0.65965  -0.65670  -0.65270  -0.64643
 Alpha  occ. eigenvalues --   -0.63084  -0.59010  -0.58393  -0.57584  -0.57283
 Alpha  occ. eigenvalues --   -0.56944  -0.56734  -0.56568  -0.55926  -0.55890
 Alpha  occ. eigenvalues --   -0.55600  -0.54805  -0.54491  -0.54274  -0.54040
 Alpha  occ. eigenvalues --   -0.53894  -0.53656  -0.52941  -0.52688  -0.52325
 Alpha  occ. eigenvalues --   -0.51718  -0.51457  -0.51348  -0.51241  -0.50949
 Alpha  occ. eigenvalues --   -0.50714  -0.50253  -0.50136  -0.49720  -0.49034
 Alpha  occ. eigenvalues --   -0.48660  -0.46074  -0.45336  -0.44116  -0.42685
 Alpha virt. eigenvalues --    0.02233   0.05714   0.07136   0.09590   0.11254
 Alpha virt. eigenvalues --    0.12937   0.14841   0.17143   0.19166   0.22754
 Alpha virt. eigenvalues --    0.23899   0.24218   0.24484   0.25123   0.26504

 Mulliken charges:
               1
     1  F   -0.283781
     2  C    0.121178
     3  C    0.532820
     4  F   -0.266478
     5  C    0.789018
     6  F   -0.245274
     7  F   -0.238718
     8  F   -0.241263
     9  F   -0.260007
    10  C    0.486746
    11  O   -0.503971
    12  C    0.764653
    13  F   -0.247783
    14  F   -0.242334
    15  C    0.549845
    16  F   -0.255888
    17  F   -0.254358
    18  C    0.535570
    19  F   -0.265734
    20  C    0.786165
    21  F   -0.246973
    22  F   -0.245947
    23  F   -0.247584
    24  F   -0.263144
    25  F   -0.256758
 Sum of Mulliken charges =   0.00000

 Dipole moment (field-independent basis, Debye):
    X=             -0.6428    Y=              0.1292    Z=              0.1306  Tot=              0.6685
 Quadrupole moment (field-independent basis, Debye-Ang):
   XX=           -131.1037   YY=           -131.0708   ZZ=           -131.3369
   XY=              1.2450   XZ=              0.0777   YZ=             -0.2307

 Normal termination of Gaussian 09 at Mon Feb  3 21:35:26 2025.
