 Gaussian 09, Revision D.01,
 Gaussian 09:  ES64L-G09RevD.01 24-Apr-2013

 ----------------------------------------------------------------------
 #p CAM-B3LYP/6-31G(d,p) SCRF=(PCM,Solvent=Generic,Read) NoSymm out=wfn
 ----------------------------------------------------------------------

 --------------------
 Title A1576805750_p1
 --------------------
 Symbolic Z-matrix:
 Charge =  1 Multiplicity = 2

                          Input orientation:
 ---------------------------------------------------------------------
 Center     Atomic      Atomic             Coordinates (Angstroms)
 Number     Number       Type             X           Y           Z
 ---------------------------------------------------------------------
      1          6           0       -2.976392   -3.716822   -0.097061
      2          6           0       -1.769322   -3.159924   -0.251474
      3          7           0       -1.424594   -1.804857   -0.402735
      4          6           0       -2.384596   -0.789414   -0.421188
      5          8           0       -3.601430   -0.975819   -0.348011
      6          7           0       -1.899073    0.506896   -0.511150
      7          6           0       -2.859800    1.608897   -0.419405
      8          6           0       -3.136760    1.997432    1.026711
      9          6           0       -0.563656    0.822660   -0.565092
     10          8           0       -0.168530    1.980937   -0.442141
     11          7           0        0.302626   -0.216543   -0.735953
     12          6           0        1.724188    0.080562   -0.834705
     13          9           0        1.906109    1.249676   -1.508038
     14          9           0        2.276119   -0.841249   -1.691629
     15          6           0        2.557565    0.064979    0.482129
     16          9           0        2.063957   -0.933405    1.296724
     17          8           0        3.925851   -0.341498    0.302842
     18          6           0        4.748329    0.622427   -0.300677
     19          9           0        4.196669    1.079411   -1.430937
     20          9           0        4.956808    1.639777    0.548083
     21          9           0        5.932306    0.055685   -0.594222
     22          6           0        2.356480    1.368932    1.252993
     23          9           0        2.645392    2.465064    0.525935
     24          9           0        3.153608    1.399108    2.351856
     25          9           0        1.088770    1.484771    1.710113
     26          6           0       -0.058624   -1.525015   -0.521379
     27          8           0        0.803099   -2.403087   -0.422553
     28          1           0       -3.910034   -3.169270   -0.064423
     29          1           0       -3.061749   -4.795248    0.007503
     30          1           0       -0.925718   -3.852251   -0.260978
     31          1           0       -2.473257    2.479043   -0.962558
     32          1           0       -3.798264    1.323791   -0.908161
     33          1           0       -2.219410    2.314677    1.533214
     34          1           0       -3.553704    1.155870    1.589307
     35          1           0       -3.852963    2.823807    1.067059
 ---------------------------------------------------------------------

 SCF Done:  E(UCAM-B3LYP) =  -1786.87490939     A.U. after   21 cycles

 Alpha  occ. eigenvalues --  -24.85773 -24.85727 -24.85672 -24.85526 -24.85151
 Alpha  occ. eigenvalues --  -24.85148 -24.85047 -24.84887 -24.84391 -19.35195
 Alpha  occ. eigenvalues --  -19.31551 -19.30560 -19.27873 -14.63833 -14.57937
 Alpha  occ. eigenvalues --  -14.55377 -10.61349 -10.57357 -10.56446 -10.53061
 Alpha  occ. eigenvalues --  -10.51890 -10.51625 -10.49618 -10.46897 -10.42230
 Alpha  occ. eigenvalues --  -10.34710 -10.28537  -1.45155  -1.43707  -1.41582
 Alpha  occ. eigenvalues --   -1.37946  -1.35645  -1.35172  -1.34596  -1.34129
 Alpha  occ. eigenvalues --   -1.33812  -1.29178  -1.23787  -1.22817  -1.22511
 Alpha  occ. eigenvalues --   -1.16937  -1.13987  -1.11332  -1.00821  -0.95673
 Alpha  occ. eigenvalues --   -0.91073  -0.89062  -0.87264  -0.84564  -0.84119
 Alpha  occ. eigenvalues --   -0.80930  -0.79884  -0.77842  -0.76000  -0.75312
 Alpha  occ. eigenvalues --   -0.73867  -0.73159  -0.71859  -0.71484  -0.70608
 Alpha  occ. eigenvalues --   -0.70037  -0.69802  -0.68994  -0.67340  -0.66512
 Alpha  occ. eigenvalues --   -0.64214  -0.62667  -0.61904  -0.61482  -0.60492
 Alpha  occ. eigenvalues --   -0.59813  -0.59560  -0.59015  -0.58895  -0.58631
 Alpha  occ. eigenvalues --   -0.58122  -0.57596  -0.57200  -0.57041  -0.56631
 Alpha  occ. eigenvalues --   -0.56355  -0.55758  -0.54759  -0.54409  -0.54009
 Alpha  occ. eigenvalues --   -0.53582  -0.53074  -0.52766  -0.52322  -0.51816
 Alpha  occ. eigenvalues --   -0.51323  -0.51041  -0.50532  -0.50337  -0.49845
 Alpha  occ. eigenvalues --   -0.47961  -0.46592  -0.45593  -0.45479  -0.44933
 Alpha  occ. eigenvalues --   -0.44602  -0.43147  -0.41024  -0.40414
 Alpha virt. eigenvalues --   -0.09062  -0.05342  -0.02411   0.02806   0.03720
 Alpha virt. eigenvalues --    0.06742   0.07818   0.09096   0.11837   0.12579
 Alpha virt. eigenvalues --    0.13406   0.14095   0.15452   0.16305   0.16822

  Beta  occ. eigenvalues --  -24.85772 -24.85726 -24.85672 -24.85526 -24.85151
  Beta  occ. eigenvalues --  -24.85148 -24.85047 -24.84886 -24.84391 -19.35195
  Beta  occ. eigenvalues --  -19.31358 -19.30496 -19.27819 -14.63275 -14.57943
  Beta  occ. eigenvalues --  -14.55320 -10.61349 -10.57357 -10.56447 -10.53142
  Beta  occ. eigenvalues --  -10.51939 -10.51625 -10.49634 -10.46661 -10.41433
  Beta  occ. eigenvalues --  -10.34711 -10.28531  -1.45155  -1.43707  -1.41581
  Beta  occ. eigenvalues --   -1.37944  -1.35645  -1.35172  -1.34595  -1.34128
  Beta  occ. eigenvalues --   -1.33811  -1.28777  -1.23608  -1.22629  -1.22509
  Beta  occ. eigenvalues --   -1.16195  -1.13837  -1.11186  -0.98594  -0.95561
  Beta  occ. eigenvalues --   -0.90906  -0.88938  -0.86682  -0.84489  -0.84067
  Beta  occ. eigenvalues --   -0.80746  -0.79771  -0.77697  -0.75795  -0.75277
  Beta  occ. eigenvalues --   -0.73853  -0.73132  -0.71840  -0.71279  -0.70600
  Beta  occ. eigenvalues --   -0.69866  -0.69508  -0.68167  -0.66916  -0.66469
  Beta  occ. eigenvalues --   -0.63569  -0.62468  -0.61700  -0.61047  -0.59905
  Beta  occ. eigenvalues --   -0.59706  -0.59493  -0.58988  -0.58760  -0.58458
  Beta  occ. eigenvalues --   -0.58070  -0.57532  -0.57082  -0.56872  -0.56438
  Beta  occ. eigenvalues --   -0.56180  -0.55730  -0.54708  -0.54351  -0.53998
  Beta  occ. eigenvalues --   -0.53566  -0.53040  -0.52650  -0.52067  -0.51698
  Beta  occ. eigenvalues --   -0.51039  -0.50536  -0.50304  -0.49887  -0.48452
  Beta  occ. eigenvalues --   -0.47927  -0.46332  -0.45370  -0.45064  -0.44514
  Beta  occ. eigenvalues --   -0.42732  -0.40891  -0.40118
  Beta virt. eigenvalues --   -0.24742  -0.05717  -0.04953  -0.00440   0.03030
  Beta virt. eigenvalues --    0.03741   0.07556   0.08155   0.09480   0.11960
  Beta virt. eigenvalues --    0.12675   0.13728   0.14384   0.15697   0.16408

 Mulliken charges and spin densities:
               1          2
     1  C   -0.105038   0.565218
     2  C    0.240942   0.182694
     3  N   -0.577834   0.232715
     4  C    0.871071  -0.028441
     5  O   -0.465025   0.028370
     6  N   -0.567498   0.025253
     7  C   -0.077235  -0.001087
     8  C   -0.331076   0.002988
     9  C    0.856216  -0.009384
    10  O   -0.468622   0.020927
    11  N   -0.638252  -0.000540
    12  C    0.764152  -0.000425
    13  F   -0.239365   0.000063
    14  F   -0.266716   0.000220
    15  C    0.437377   0.000025
    16  F   -0.272797   0.000203
    17  O   -0.491634   0.000071
    18  C    0.979768  -0.000003
    19  F   -0.233396   0.000001
    20  F   -0.237108   0.000001
    21  F   -0.234420  -0.000002
    22  C    0.823486  -0.000031
    23  F   -0.240268   0.000005
    24  F   -0.255181   0.000008
    25  F   -0.246221   0.000111
    26  C    0.893249  -0.042709
    27  O   -0.437284   0.077491
    28  H    0.248967  -0.021997
    29  H    0.241821  -0.025187
    30  H    0.266048  -0.007904
    31  H    0.176215   0.000513
    32  H    0.172151   0.000587
    33  H    0.137831  -0.000041
    34  H    0.128761  -0.000083
    35  H    0.146912   0.000370
 Sum of Mulliken charges =   1.00000   1.00000

 Dipole moment (field-independent basis, Debye):
    X=            -11.5900    Y=            -11.2518    Z=             -1.3607  Tot=             16.2106
 Quadrupole moment (field-independent basis, Debye-Ang):
   XX=           -116.4596   YY=            -98.0637   ZZ=           -141.4210
   XY=             27.2730   XZ=              1.4429   YZ=              1.7177

 Normal termination of Gaussian 09 at Sun Mar  3 17:34:33 2024.
