 Gaussian 09, Revision D.01,
 Gaussian 09:  ES64L-G09RevD.01 24-Apr-2013

 ----------------------------------------------------------------------
 #p CAM-B3LYP/6-31G(d,p) SCRF=(PCM,Solvent=Generic,Read) NoSymm out=wfn
 ----------------------------------------------------------------------

 -------------------
 Title A1576805750_0
 -------------------
 Symbolic Z-matrix:
 Charge =  0 Multiplicity = 1

                          Input orientation:
 ---------------------------------------------------------------------
 Center     Atomic      Atomic             Coordinates (Angstroms)
 Number     Number       Type             X           Y           Z
 ---------------------------------------------------------------------
      1          6           0       -2.976392   -3.716822   -0.097061
      2          6           0       -1.769322   -3.159924   -0.251474
      3          7           0       -1.424594   -1.804857   -0.402735
      4          6           0       -2.384596   -0.789414   -0.421188
      5          8           0       -3.601430   -0.975819   -0.348011
      6          7           0       -1.899073    0.506896   -0.511150
      7          6           0       -2.859800    1.608897   -0.419405
      8          6           0       -3.136760    1.997432    1.026711
      9          6           0       -0.563656    0.822660   -0.565092
     10          8           0       -0.168530    1.980937   -0.442141
     11          7           0        0.302626   -0.216543   -0.735953
     12          6           0        1.724188    0.080562   -0.834705
     13          9           0        1.906109    1.249676   -1.508038
     14          9           0        2.276119   -0.841249   -1.691629
     15          6           0        2.557565    0.064979    0.482129
     16          9           0        2.063957   -0.933405    1.296724
     17          8           0        3.925851   -0.341498    0.302842
     18          6           0        4.748329    0.622427   -0.300677
     19          9           0        4.196669    1.079411   -1.430937
     20          9           0        4.956808    1.639777    0.548083
     21          9           0        5.932306    0.055685   -0.594222
     22          6           0        2.356480    1.368932    1.252993
     23          9           0        2.645392    2.465064    0.525935
     24          9           0        3.153608    1.399108    2.351856
     25          9           0        1.088770    1.484771    1.710113
     26          6           0       -0.058624   -1.525015   -0.521379
     27          8           0        0.803099   -2.403087   -0.422553
     28          1           0       -3.910034   -3.169270   -0.064423
     29          1           0       -3.061749   -4.795248    0.007503
     30          1           0       -0.925718   -3.852251   -0.260978
     31          1           0       -2.473257    2.479043   -0.962558
     32          1           0       -3.798264    1.323791   -0.908161
     33          1           0       -2.219410    2.314677    1.533214
     34          1           0       -3.553704    1.155870    1.589307
     35          1           0       -3.852963    2.823807    1.067059
 ---------------------------------------------------------------------

 SCF Done:  E(RCAM-B3LYP) =  -1787.15558601     A.U. after   13 cycles

 Alpha  occ. eigenvalues --  -24.83930 -24.83573 -24.83517 -24.83394 -24.83126
 Alpha  occ. eigenvalues --  -24.82989 -24.82467 -24.82435 -24.81637 -19.33028
 Alpha  occ. eigenvalues --  -19.23840 -19.23475 -19.23013 -14.52662 -14.51609
 Alpha  occ. eigenvalues --  -14.49691 -10.59613 -10.55162 -10.52983 -10.48948
 Alpha  occ. eigenvalues --  -10.45873 -10.44892 -10.44840 -10.31868 -10.31239
 Alpha  occ. eigenvalues --  -10.26632 -10.25780  -1.43430  -1.41626  -1.38479
 Alpha  occ. eigenvalues --   -1.35216  -1.33937  -1.33397  -1.32626  -1.31981
 Alpha  occ. eigenvalues --   -1.30865  -1.22020  -1.20366  -1.17011  -1.16823
 Alpha  occ. eigenvalues --   -1.08942  -1.07248  -1.05463  -0.92882  -0.87918
 Alpha  occ. eigenvalues --   -0.85818  -0.83925  -0.82261  -0.79200  -0.78559
 Alpha  occ. eigenvalues --   -0.76623  -0.74327  -0.73360  -0.72692  -0.71183
 Alpha  occ. eigenvalues --   -0.70753  -0.69994  -0.69674  -0.68602  -0.67637
 Alpha  occ. eigenvalues --   -0.66413  -0.64809  -0.63562  -0.61690  -0.59749
 Alpha  occ. eigenvalues --   -0.58593  -0.57465  -0.57186  -0.57053  -0.56646
 Alpha  occ. eigenvalues --   -0.55960  -0.55571  -0.55128  -0.54833  -0.54566
 Alpha  occ. eigenvalues --   -0.54050  -0.53754  -0.53361  -0.53212  -0.52735
 Alpha  occ. eigenvalues --   -0.52053  -0.51578  -0.51375  -0.51105  -0.50513
 Alpha  occ. eigenvalues --   -0.50436  -0.50279  -0.49747  -0.49490  -0.48684
 Alpha  occ. eigenvalues --   -0.48241  -0.47494  -0.46320  -0.45828  -0.44897
 Alpha  occ. eigenvalues --   -0.43756  -0.42568  -0.41232  -0.39303  -0.38252
 Alpha  occ. eigenvalues --   -0.37870  -0.35893  -0.35361  -0.31401
 Alpha virt. eigenvalues --    0.00755   0.01048   0.05473   0.06950   0.07138
 Alpha virt. eigenvalues --    0.13730   0.14823   0.15060   0.16394   0.17191
 Alpha virt. eigenvalues --    0.18122   0.19090   0.20042   0.20272   0.20864

 Mulliken charges:
               1
     1  C   -0.268024
     2  C    0.110174
     3  N   -0.610645
     4  C    0.836780
     5  O   -0.508258
     6  N   -0.569720
     7  C   -0.060926
     8  C   -0.328168
     9  C    0.831967
    10  O   -0.511853
    11  N   -0.634193
    12  C    0.762049
    13  F   -0.249805
    14  F   -0.274055
    15  C    0.434693
    16  F   -0.271423
    17  O   -0.496686
    18  C    0.976267
    19  F   -0.233902
    20  F   -0.240199
    21  F   -0.238047
    22  C    0.820159
    23  F   -0.244471
    24  F   -0.260821
    25  F   -0.244665
    26  C    0.851007
    27  O   -0.503393
    28  H    0.145613
    29  H    0.124024
    30  H    0.166215
    31  H    0.153364
    32  H    0.155055
    33  H    0.127928
    34  H    0.126420
    35  H    0.127537
 Sum of Mulliken charges =   0.00000

 Dipole moment (field-independent basis, Debye):
    X=             -2.6246    Y=              0.2537    Z=             -0.2164  Tot=              2.6457
 Quadrupole moment (field-independent basis, Debye-Ang):
   XX=           -150.0220   YY=           -147.6015   ZZ=           -146.2612
   XY=             -0.6212   XZ=              0.0771   YZ=             -0.5324

 Normal termination of Gaussian 09 at Sun Mar  3 17:34:07 2024.
