 Gaussian 09, Revision D.01,
 Gaussian 09:  ES64L-G09RevD.01 24-Apr-2013

 ----------------------------------------------------------------------
 #p CAM-B3LYP/6-31G(d,p) SCRF=(PCM,Solvent=Generic,Read) NoSymm out=wfn
 ----------------------------------------------------------------------

 -------------------
 Title A126125642_p1
 -------------------
 Symbolic Z-matrix:
 Charge =  1 Multiplicity = 2

                          Input orientation:
 ---------------------------------------------------------------------
 Center     Atomic      Atomic             Coordinates (Angstroms)
 Number     Number       Type             X           Y           Z
 ---------------------------------------------------------------------
      1          6           0       -0.095404    0.637833    3.467325
      2          6           0        1.158077    1.415292    3.094842
      3          6           0        0.966751    2.342712    1.888289
      4          7           0        0.709828    1.617039    0.639026
      5          6           0       -0.591869    1.484676    0.204630
      6          8           0       -1.519258    1.965366    0.847200
      7          7           0       -0.787392    0.773661   -0.943903
      8          6           0       -2.125614    0.493135   -1.469619
      9          9           0       -2.005939    0.574930   -2.832279
     10          9           0       -2.425782   -0.810875   -1.211918
     11          6           0       -3.355457    1.369895   -1.086528
     12          9           0       -3.005091    2.690514   -1.286446
     13          8           0       -3.878525    1.351083    0.247632
     14          6           0       -3.998187    0.082537    0.829330
     15          9           0       -2.780050   -0.434623    1.067130
     16          9           0       -4.690042   -0.737081    0.027955
     17          9           0       -4.653371    0.199048    1.998097
     18          6           0       -4.452885    1.047147   -2.117544
     19          9           0       -4.703008   -0.272457   -2.240459
     20          9           0       -5.625607    1.640204   -1.775279
     21          9           0       -4.143146    1.506185   -3.353516
     22          6           0        0.228483    0.032794   -1.512751
     23          8           0       -0.002371   -0.902274   -2.274770
     24          7           0        1.513128    0.362700   -1.157613
     25          6           0        2.617957   -0.290768   -1.856844
     26          9           0        3.723468    0.510893   -1.822768
     27          9           0        2.300703   -0.288661   -3.195224
     28          6           0        3.018041   -1.745325   -1.472720
     29          9           0        3.986701   -2.144056   -2.360675
     30          8           0        1.909694   -2.624484   -1.681262
     31          6           0        2.147992   -3.949848   -1.293069
     32          9           0        1.248602   -4.747566   -1.896870
     33          9           0        3.382639   -4.352159   -1.628752
     34          9           0        1.977481   -4.044895    0.037333
     35          6           0        3.611174   -1.739239   -0.062770
     36          9           0        2.658099   -1.452835    0.857058
     37          9           0        4.112799   -2.951675    0.274996
     38          9           0        4.623499   -0.863417    0.083503
     39          6           0        1.787108    1.063307   -0.016427
     40          8           0        2.928063    1.160101    0.429027
     41          1           0       -0.938045    1.312258    3.648874
     42          1           0       -0.376673   -0.067225    2.679358
     43          1           0        0.078547    0.060934    4.381310
     44          1           0        1.457667    2.025010    3.955496
     45          1           0        1.973363    0.707205    2.908224
     46          1           0        0.156591    3.052532    2.090277
     47          1           0        1.877262    2.940470    1.757412
 ---------------------------------------------------------------------

 SCF Done:  E(UCAM-B3LYP) =  -2874.05259396     A.U. after   51 cycles

 Alpha  occ. eigenvalues --  -24.88293 -24.88243 -24.88168 -24.87964 -24.87884
 Alpha  occ. eigenvalues --  -24.87510 -24.87374 -24.86943 -24.86621 -24.86608
 Alpha  occ. eigenvalues --  -24.85875 -24.85831 -24.85713 -24.85659 -24.85523
 Alpha  occ. eigenvalues --  -24.85447 -24.85424 -24.85395 -19.43110 -19.38530
 Alpha  occ. eigenvalues --  -19.35970 -19.35933 -19.33758 -14.62563 -14.61057
 Alpha  occ. eigenvalues --  -14.60749 -10.63782 -10.61867 -10.59806 -10.58806
 Alpha  occ. eigenvalues --  -10.58573 -10.58408 -10.57634 -10.54932 -10.54895
 Alpha  occ. eigenvalues --  -10.54526 -10.52785 -10.37967 -10.31032 -10.28805
 Alpha  occ. eigenvalues --   -1.47302  -1.45819  -1.45099  -1.44718  -1.43764
 Alpha  occ. eigenvalues --   -1.43389  -1.39958  -1.38270  -1.38006  -1.37543
 Alpha  occ. eigenvalues --   -1.36671  -1.36625  -1.35826  -1.35560  -1.35546
 Alpha  occ. eigenvalues --   -1.35262  -1.35039  -1.34830  -1.34587  -1.30528
 Alpha  occ. eigenvalues --   -1.27459  -1.25834  -1.23584  -1.20580  -1.17291
 Alpha  occ. eigenvalues --   -1.15930  -0.98565  -0.97561  -0.94988  -0.92217
 Alpha  occ. eigenvalues --   -0.91600  -0.88655  -0.86594  -0.85724  -0.85251
 Alpha  occ. eigenvalues --   -0.84322  -0.83025  -0.80635  -0.79493  -0.78228
 Alpha  occ. eigenvalues --   -0.76481  -0.75787  -0.75125  -0.75061  -0.74878
 Alpha  occ. eigenvalues --   -0.74349  -0.73526  -0.73185  -0.72908  -0.72595
 Alpha  occ. eigenvalues --   -0.72084  -0.71537  -0.71326  -0.70720  -0.70343
 Alpha  occ. eigenvalues --   -0.69981  -0.69234  -0.69110  -0.68889  -0.68210
 Alpha  occ. eigenvalues --   -0.65229  -0.65009  -0.64637  -0.63703  -0.63348
 Alpha  occ. eigenvalues --   -0.62738  -0.62075  -0.61706  -0.61025  -0.60818
 Alpha  occ. eigenvalues --   -0.60300  -0.59961  -0.59773  -0.59545  -0.59230
 Alpha  occ. eigenvalues --   -0.59136  -0.58781  -0.58553  -0.58312  -0.58105
 Alpha  occ. eigenvalues --   -0.57692  -0.57537  -0.57190  -0.56903  -0.56663
 Alpha  occ. eigenvalues --   -0.56479  -0.56081  -0.55763  -0.55542  -0.55344
 Alpha  occ. eigenvalues --   -0.55018  -0.54941  -0.54798  -0.54364  -0.53980
 Alpha  occ. eigenvalues --   -0.53740  -0.53597  -0.53507  -0.53297  -0.52846
 Alpha  occ. eigenvalues --   -0.52669  -0.52500  -0.52346  -0.52212  -0.51742
 Alpha  occ. eigenvalues --   -0.51607  -0.50803  -0.49971  -0.49583  -0.48516
 Alpha  occ. eigenvalues --   -0.48135  -0.47723  -0.46838  -0.45918  -0.45830
 Alpha  occ. eigenvalues --   -0.44812  -0.43818
 Alpha virt. eigenvalues --   -0.09761  -0.07690  -0.00333   0.00790   0.02133
 Alpha virt. eigenvalues --    0.03150   0.04208   0.07817   0.09001   0.09894
 Alpha virt. eigenvalues --    0.10282   0.12260   0.13053   0.13333   0.13486

  Beta  occ. eigenvalues --  -24.88291 -24.88239 -24.88167 -24.87949 -24.87859
  Beta  occ. eigenvalues --  -24.87510 -24.87367 -24.86943 -24.86615 -24.86599
  Beta  occ. eigenvalues --  -24.85874 -24.85831 -24.85713 -24.85659 -24.85523
  Beta  occ. eigenvalues --  -24.85447 -24.85423 -24.85395 -19.41592 -19.38370
  Beta  occ. eigenvalues --  -19.35927 -19.35260 -19.33443 -14.62488 -14.61024
  Beta  occ. eigenvalues --  -14.60657 -10.63787 -10.61866 -10.59811 -10.58806
  Beta  occ. eigenvalues --  -10.58575 -10.58406 -10.57746 -10.54995 -10.54926
  Beta  occ. eigenvalues --  -10.54530 -10.52786 -10.37932 -10.31033 -10.28799
  Beta  occ. eigenvalues --   -1.47282  -1.45815  -1.45091  -1.44715  -1.43757
  Beta  occ. eigenvalues --   -1.43358  -1.39915  -1.38266  -1.37991  -1.37535
  Beta  occ. eigenvalues --   -1.36666  -1.36616  -1.35803  -1.35549  -1.35539
  Beta  occ. eigenvalues --   -1.35041  -1.34829  -1.34593  -1.33403  -1.29315
  Beta  occ. eigenvalues --   -1.26694  -1.25538  -1.23569  -1.19548  -1.16808
  Beta  occ. eigenvalues --   -1.15527  -0.98532  -0.97517  -0.94840  -0.91924
  Beta  occ. eigenvalues --   -0.91170  -0.88357  -0.86489  -0.85637  -0.84980
  Beta  occ. eigenvalues --   -0.83593  -0.82862  -0.80538  -0.79434  -0.78175
  Beta  occ. eigenvalues --   -0.76443  -0.75766  -0.75076  -0.75016  -0.74772
  Beta  occ. eigenvalues --   -0.74254  -0.73438  -0.73129  -0.72837  -0.72525
  Beta  occ. eigenvalues --   -0.72074  -0.71502  -0.71319  -0.70574  -0.70223
  Beta  occ. eigenvalues --   -0.69572  -0.69056  -0.68879  -0.68388  -0.68167
  Beta  occ. eigenvalues --   -0.64789  -0.64625  -0.64041  -0.63592  -0.62739
  Beta  occ. eigenvalues --   -0.62321  -0.61922  -0.61637  -0.60817  -0.60644
  Beta  occ. eigenvalues --   -0.60074  -0.59810  -0.59641  -0.59307  -0.59159
  Beta  occ. eigenvalues --   -0.58881  -0.58481  -0.58414  -0.58196  -0.58022
  Beta  occ. eigenvalues --   -0.57440  -0.57378  -0.56992  -0.56699  -0.56525
  Beta  occ. eigenvalues --   -0.56148  -0.55739  -0.55493  -0.55377  -0.54991
  Beta  occ. eigenvalues --   -0.54919  -0.54654  -0.54328  -0.53934  -0.53677
  Beta  occ. eigenvalues --   -0.53553  -0.53511  -0.53272  -0.52823  -0.52602
  Beta  occ. eigenvalues --   -0.52445  -0.52290  -0.52150  -0.51726  -0.51586
  Beta  occ. eigenvalues --   -0.50258  -0.49534  -0.48248  -0.47952  -0.47599
  Beta  occ. eigenvalues --   -0.46549  -0.45896  -0.45194  -0.44582  -0.43927
  Beta  occ. eigenvalues --   -0.42907
  Beta virt. eigenvalues --   -0.31700  -0.09479  -0.07547  -0.00311   0.00831
  Beta virt. eigenvalues --    0.02149   0.03196   0.04229   0.07961   0.09187
  Beta virt. eigenvalues --    0.09921   0.10379   0.12296   0.13191   0.13408

 Mulliken charges and spin densities:
               1          2
     1  C   -0.335936   0.003964
     2  C   -0.196368  -0.000264
     3  C   -0.122737   0.012361
     4  N   -0.577439   0.045250
     5  C    0.955337  -0.062531
     6  O   -0.276683   0.565368
     7  N   -0.657174   0.028034
     8  C    0.800855  -0.000486
     9  F   -0.250618   0.000706
    10  F   -0.237365   0.001180
    11  C    0.403109  -0.004076
    12  F   -0.264247   0.004020
    13  O   -0.471082   0.049972
    14  C    1.002715  -0.002633
    15  F   -0.249285   0.000744
    16  F   -0.227710   0.001934
    17  F   -0.223530   0.000169
    18  C    0.820783   0.000143
    19  F   -0.231252   0.000329
    20  F   -0.242984   0.000052
    21  F   -0.238662   0.000349
    22  C    0.908222  -0.020587
    23  O   -0.379160   0.118358
    24  N   -0.644707   0.014707
    25  C    0.738956  -0.002056
    26  F   -0.232434   0.005784
    27  F   -0.248817   0.002232
    28  C    0.450229   0.000100
    29  F   -0.253730  -0.000002
    30  O   -0.505250   0.001085
    31  C    1.002601   0.000093
    32  F   -0.232035   0.000000
    33  F   -0.237300   0.000147
    34  F   -0.246575   0.000023
    35  C    0.815634  -0.000398
    36  F   -0.253151   0.000136
    37  F   -0.244400   0.000083
    38  F   -0.229987   0.001409
    39  C    0.916199  -0.040555
    40  O   -0.372520   0.266644
    41  H    0.130043   0.000395
    42  H    0.096421   0.000186
    43  H    0.145507  -0.000169
    44  H    0.157508  -0.000162
    45  H    0.142069   0.003439
    46  H    0.194692   0.001071
    47  H    0.202254   0.003448
 Sum of Mulliken charges =   1.00000   1.00000

 Dipole moment (field-independent basis, Debye):
    X=              0.6319    Y=              6.3626    Z=              3.1086  Tot=              7.1096
 Quadrupole moment (field-independent basis, Debye-Ang):
   XX=           -199.3032   YY=           -194.9024   ZZ=           -198.9483
   XY=              0.6122   XZ=              0.4978   YZ=              4.8297

 Normal termination of Gaussian 09 at Sun Mar  3 17:28:27 2024.
