 Gaussian 09, Revision D.01,
 Gaussian 09:  ES64L-G09RevD.01 24-Apr-2013

 ----------------------------------------------------------------------
 #p CAM-B3LYP/6-31G(d,p) SCRF=(PCM,Solvent=Generic,Read) NoSymm out=wfn
 ----------------------------------------------------------------------

 ------------------
 Title A126125642_0
 ------------------
 Symbolic Z-matrix:
 Charge =  0 Multiplicity = 1

                          Input orientation:
 ---------------------------------------------------------------------
 Center     Atomic      Atomic             Coordinates (Angstroms)
 Number     Number       Type             X           Y           Z
 ---------------------------------------------------------------------
      1          6           0       -0.095404    0.637833    3.467325
      2          6           0        1.158077    1.415292    3.094842
      3          6           0        0.966751    2.342712    1.888289
      4          7           0        0.709828    1.617039    0.639026
      5          6           0       -0.591869    1.484676    0.204630
      6          8           0       -1.519258    1.965366    0.847200
      7          7           0       -0.787392    0.773661   -0.943903
      8          6           0       -2.125614    0.493135   -1.469619
      9          9           0       -2.005939    0.574930   -2.832279
     10          9           0       -2.425782   -0.810875   -1.211918
     11          6           0       -3.355457    1.369895   -1.086528
     12          9           0       -3.005091    2.690514   -1.286446
     13          8           0       -3.878525    1.351083    0.247632
     14          6           0       -3.998187    0.082537    0.829330
     15          9           0       -2.780050   -0.434623    1.067130
     16          9           0       -4.690042   -0.737081    0.027955
     17          9           0       -4.653371    0.199048    1.998097
     18          6           0       -4.452885    1.047147   -2.117544
     19          9           0       -4.703008   -0.272457   -2.240459
     20          9           0       -5.625607    1.640204   -1.775279
     21          9           0       -4.143146    1.506185   -3.353516
     22          6           0        0.228483    0.032794   -1.512751
     23          8           0       -0.002371   -0.902274   -2.274770
     24          7           0        1.513128    0.362700   -1.157613
     25          6           0        2.617957   -0.290768   -1.856844
     26          9           0        3.723468    0.510893   -1.822768
     27          9           0        2.300703   -0.288661   -3.195224
     28          6           0        3.018041   -1.745325   -1.472720
     29          9           0        3.986701   -2.144056   -2.360675
     30          8           0        1.909694   -2.624484   -1.681262
     31          6           0        2.147992   -3.949848   -1.293069
     32          9           0        1.248602   -4.747566   -1.896870
     33          9           0        3.382639   -4.352159   -1.628752
     34          9           0        1.977481   -4.044895    0.037333
     35          6           0        3.611174   -1.739239   -0.062770
     36          9           0        2.658099   -1.452835    0.857058
     37          9           0        4.112799   -2.951675    0.274996
     38          9           0        4.623499   -0.863417    0.083503
     39          6           0        1.787108    1.063307   -0.016427
     40          8           0        2.928063    1.160101    0.429027
     41          1           0       -0.938045    1.312258    3.648874
     42          1           0       -0.376673   -0.067225    2.679358
     43          1           0        0.078547    0.060934    4.381310
     44          1           0        1.457667    2.025010    3.955496
     45          1           0        1.973363    0.707205    2.908224
     46          1           0        0.156591    3.052532    2.090277
     47          1           0        1.877262    2.940470    1.757412
 ---------------------------------------------------------------------

 SCF Done:  E(RCAM-B3LYP) =  -2874.39278575     A.U. after   13 cycles

 Alpha  occ. eigenvalues --  -24.84005 -24.83783 -24.83653 -24.83626 -24.83575
 Alpha  occ. eigenvalues --  -24.83471 -24.83391 -24.83220 -24.83182 -24.83172
 Alpha  occ. eigenvalues --  -24.83097 -24.83040 -24.83014 -24.82917 -24.82865
 Alpha  occ. eigenvalues --  -24.82585 -24.82493 -24.82273 -19.32873 -19.32520
 Alpha  occ. eigenvalues --  -19.24901 -19.23938 -19.23787 -14.53457 -14.53404
 Alpha  occ. eigenvalues --  -14.50672 -10.59620 -10.59505 -10.55669 -10.54994
 Alpha  occ. eigenvalues --  -10.53986 -10.53818 -10.49619 -10.49263 -10.47161
 Alpha  occ. eigenvalues --  -10.45899 -10.45756 -10.31527 -10.26604 -10.25005
 Alpha  occ. eigenvalues --   -1.43333  -1.43225  -1.41957  -1.41491  -1.39246
 Alpha  occ. eigenvalues --   -1.38980  -1.35290  -1.35155  -1.33933  -1.33495
 Alpha  occ. eigenvalues --   -1.33404  -1.33290  -1.33184  -1.32459  -1.32363
 Alpha  occ. eigenvalues --   -1.32027  -1.31584  -1.31309  -1.23576  -1.20620
 Alpha  occ. eigenvalues --   -1.20357  -1.18325  -1.18119  -1.10271  -1.08676
 Alpha  occ. eigenvalues --   -1.06695  -0.93902  -0.92997  -0.88826  -0.85749
 Alpha  occ. eigenvalues --   -0.84379  -0.82350  -0.81973  -0.81783  -0.79796
 Alpha  occ. eigenvalues --   -0.78276  -0.76336  -0.75370  -0.75003  -0.73702
 Alpha  occ. eigenvalues --   -0.72963  -0.72170  -0.71110  -0.70740  -0.70504
 Alpha  occ. eigenvalues --   -0.70224  -0.69619  -0.69521  -0.68783  -0.68579
 Alpha  occ. eigenvalues --   -0.68227  -0.67683  -0.67187  -0.66786  -0.66398
 Alpha  occ. eigenvalues --   -0.65309  -0.64569  -0.64006  -0.62638  -0.59898
 Alpha  occ. eigenvalues --   -0.59320  -0.58566  -0.57950  -0.57648  -0.57306
 Alpha  occ. eigenvalues --   -0.57158  -0.56883  -0.56546  -0.56232  -0.56120
 Alpha  occ. eigenvalues --   -0.56031  -0.55782  -0.55630  -0.55422  -0.55006
 Alpha  occ. eigenvalues --   -0.54755  -0.54560  -0.54149  -0.53790  -0.53725
 Alpha  occ. eigenvalues --   -0.53439  -0.53127  -0.53028  -0.52887  -0.52719
 Alpha  occ. eigenvalues --   -0.52304  -0.51723  -0.51487  -0.51340  -0.51242
 Alpha  occ. eigenvalues --   -0.51067  -0.50641  -0.50513  -0.50495  -0.50199
 Alpha  occ. eigenvalues --   -0.50063  -0.49857  -0.49492  -0.49163  -0.49095
 Alpha  occ. eigenvalues --   -0.48910  -0.48705  -0.48214  -0.47931  -0.47353
 Alpha  occ. eigenvalues --   -0.46085  -0.44604  -0.43177  -0.42861  -0.41631
 Alpha  occ. eigenvalues --   -0.41352  -0.40694  -0.39508  -0.38908  -0.38567
 Alpha  occ. eigenvalues --   -0.36156  -0.36071
 Alpha virt. eigenvalues --    0.00047   0.00519   0.05455   0.06287   0.06484
 Alpha virt. eigenvalues --    0.08286   0.10334   0.13625   0.14180   0.15148
 Alpha virt. eigenvalues --    0.16083   0.17090   0.17945   0.18157   0.18868

 Mulliken charges:
               1
     1  C   -0.319027
     2  C   -0.190058
     3  C   -0.065034
     4  N   -0.585187
     5  C    0.849412
     6  O   -0.509328
     7  N   -0.654625
     8  C    0.799125
     9  F   -0.271775
    10  F   -0.258708
    11  C    0.427368
    12  F   -0.279116
    13  O   -0.484057
    14  C    0.990868
    15  F   -0.247564
    16  F   -0.241008
    17  F   -0.237972
    18  C    0.805229
    19  F   -0.239003
    20  F   -0.253933
    21  F   -0.247698
    22  C    0.854983
    23  O   -0.467796
    24  N   -0.643766
    25  C    0.745277
    26  F   -0.246315
    27  F   -0.265119
    28  C    0.436670
    29  F   -0.267379
    30  O   -0.498947
    31  C    0.995968
    32  F   -0.237049
    33  F   -0.242635
    34  F   -0.249162
    35  C    0.816372
    36  F   -0.250650
    37  F   -0.254438
    38  F   -0.233872
    39  C    0.842874
    40  O   -0.507692
    41  H    0.118276
    42  H    0.098225
    43  H    0.113006
    44  H    0.120989
    45  H    0.121750
    46  H    0.160091
    47  H    0.152429
 Sum of Mulliken charges =   0.00000

 Dipole moment (field-independent basis, Debye):
    X=              0.7955    Y=              1.6466    Z=              2.7284  Tot=              3.2845
 Quadrupole moment (field-independent basis, Debye-Ang):
   XX=           -229.1699   YY=           -211.7814   ZZ=           -215.9170
   XY=              3.9778   XZ=             -0.3003   YZ=             -1.7558

 Normal termination of Gaussian 09 at Sun Mar  3 17:24:17 2024.
