 Gaussian 09, Revision D.01,
 Gaussian 09:  ES64L-G09RevD.01 24-Apr-2013

 ----------------------------------------------------------------------
 #p CAM-B3LYP/6-31G(d,p) SCRF=(PCM,Solvent=Generic,Read) NoSymm out=wfn
 ----------------------------------------------------------------------

 ------------------
 Title A895623832_0
 ------------------
 Symbolic Z-matrix:
 Charge =  0 Multiplicity = 1

                          Input orientation:
 ---------------------------------------------------------------------
 Center     Atomic      Atomic             Coordinates (Angstroms)
 Number     Number       Type             X           Y           Z
 ---------------------------------------------------------------------
      1          8           0       -1.268442   -2.690776    1.751235
      2          6           0       -0.668533   -2.017180    0.922879
      3          7           0        0.380262   -2.541647    0.230639
      4          6           0        1.308854   -1.807295   -0.445309
      5          8           0        2.398671   -2.291519   -0.726882
      6          7           0        0.934637   -0.530983   -0.748502
      7          6           0        1.801042    0.298341   -1.571161
      8          9           0        2.243590   -0.433767   -2.624085
      9          9           0        1.013981    1.263110   -2.133373
     10          6           0        2.968101    0.978338   -0.813056
     11          9           0        2.407891    1.855296    0.082571
     12          8           0        3.683146    0.027613   -0.023303
     13          6           0        4.866013    0.537561    0.526295
     14          9           0        4.673117    1.767102    1.030200
     15          9           0        5.269381   -0.277847    1.517703
     16          9           0        5.817781    0.571753   -0.420485
     17          6           0        3.756906    1.746214   -1.882245
     18          9           0        4.711161    2.533315   -1.329469
     19          9           0        4.386827    0.915035   -2.741579
     20          9           0        2.974880    2.569159   -2.616757
     21          6           0       -0.416054   -0.113042   -0.534771
     22          7           0       -0.974691   -0.716313    0.643095
     23          6           0       -2.158598   -0.106191    1.223653
     24          9           0       -1.866284    1.230739    1.267712
     25          9           0       -2.285300   -0.450369    2.530465
     26          6           0       -3.520880   -0.266443    0.490536
     27          9           0       -3.387693    0.188900   -0.798659
     28          8           0       -4.637846    0.440602    1.053902
     29          6           0       -4.427454    1.816861    1.214207
     30          9           0       -3.715150    2.330346    0.197565
     31          9           0       -5.625416    2.429776    1.252820
     32          9           0       -3.797073    2.035691    2.379653
     33          6           0       -3.907239   -1.739809    0.426580
     34          9           0       -3.028280   -2.462230   -0.305999
     35          9           0       -4.023863   -2.305854    1.643748
     36          9           0       -5.111333   -1.889213   -0.188918
     37          1           0        0.670001   -3.468973    0.508625
     38          1           0       -0.431762    0.974398   -0.415352
     39          1           0       -1.014353   -0.400695   -1.406295
 ---------------------------------------------------------------------

 SCF Done:  E(RCAM-B3LYP) =  -2682.53132452     A.U. after   13 cycles

 Alpha  occ. eigenvalues --  -24.84077 -24.83928 -24.83825 -24.83703 -24.83587
 Alpha  occ. eigenvalues --  -24.83495 -24.83493 -24.83477 -24.83329 -24.83247
 Alpha  occ. eigenvalues --  -24.83213 -24.83139 -24.83038 -24.82880 -24.82859
 Alpha  occ. eigenvalues --  -24.82803 -24.82697 -24.82651 -19.33191 -19.32930
 Alpha  occ. eigenvalues --  -19.21835 -19.21823 -14.50073 -14.49671 -14.48279
 Alpha  occ. eigenvalues --  -10.59620 -10.59505 -10.55501 -10.55471 -10.52971
 Alpha  occ. eigenvalues --  -10.52814 -10.49174 -10.48872 -10.43785 -10.43672
 Alpha  occ. eigenvalues --  -10.37935  -1.43202  -1.43124  -1.41891  -1.41843
 Alpha  occ. eigenvalues --   -1.39434  -1.39135  -1.36189  -1.35594  -1.33490
 Alpha  occ. eigenvalues --   -1.33460  -1.33306  -1.33159  -1.33109  -1.32957
 Alpha  occ. eigenvalues --   -1.32231  -1.32083  -1.32066  -1.31816  -1.20723
 Alpha  occ. eigenvalues --   -1.20666  -1.20025  -1.15927  -1.10600  -1.05613
 Alpha  occ. eigenvalues --   -1.04687  -0.93798  -0.93259  -0.85947  -0.83909
 Alpha  occ. eigenvalues --   -0.83167  -0.81841  -0.80958  -0.78182  -0.77233
 Alpha  occ. eigenvalues --   -0.75088  -0.73986  -0.72875  -0.72395  -0.71695
 Alpha  occ. eigenvalues --   -0.71424  -0.70923  -0.70360  -0.70199  -0.69359
 Alpha  occ. eigenvalues --   -0.69201  -0.68639  -0.68409  -0.67731  -0.67536
 Alpha  occ. eigenvalues --   -0.66523  -0.66253  -0.65427  -0.65129  -0.63274
 Alpha  occ. eigenvalues --   -0.62672  -0.62122  -0.60448  -0.59768  -0.58298
 Alpha  occ. eigenvalues --   -0.57627  -0.57453  -0.57108  -0.56604  -0.56524
 Alpha  occ. eigenvalues --   -0.56448  -0.56273  -0.56096  -0.55631  -0.55150
 Alpha  occ. eigenvalues --   -0.55000  -0.54950  -0.54383  -0.54118  -0.53807
 Alpha  occ. eigenvalues --   -0.53542  -0.53083  -0.52918  -0.52683  -0.52523
 Alpha  occ. eigenvalues --   -0.52410  -0.52183  -0.51823  -0.51630  -0.51407
 Alpha  occ. eigenvalues --   -0.51195  -0.51006  -0.50789  -0.50754  -0.50543
 Alpha  occ. eigenvalues --   -0.50287  -0.50024  -0.49694  -0.49269  -0.49157
 Alpha  occ. eigenvalues --   -0.49033  -0.48957  -0.48854  -0.46226  -0.45641
 Alpha  occ. eigenvalues --   -0.44749  -0.44361  -0.38202  -0.37816  -0.36846
 Alpha  occ. eigenvalues --   -0.35496  -0.35334
 Alpha virt. eigenvalues --    0.02415   0.05768   0.06118   0.07481   0.08582
 Alpha virt. eigenvalues --    0.10468   0.13486   0.13970   0.15301   0.16486
 Alpha virt. eigenvalues --    0.17140   0.17451   0.18605   0.19425   0.19911

 Mulliken charges:
               1
     1  O   -0.526879
     2  C    0.787711
     3  N   -0.608553
     4  C    0.806796
     5  O   -0.521647
     6  N   -0.605593
     7  C    0.749146
     8  F   -0.246375
     9  F   -0.270224
    10  C    0.438059
    11  F   -0.273074
    12  O   -0.497524
    13  C    0.994358
    14  F   -0.245398
    15  F   -0.238358
    16  F   -0.244438
    17  C    0.814074
    18  F   -0.258497
    19  F   -0.244028
    20  F   -0.247516
    21  C    0.122551
    22  N   -0.577218
    23  C    0.742043
    24  F   -0.279199
    25  F   -0.241765
    26  C    0.425547
    27  F   -0.270677
    28  O   -0.515040
    29  C    1.002715
    30  F   -0.247524
    31  F   -0.239365
    32  F   -0.243768
    33  C    0.814373
    34  F   -0.247078
    35  F   -0.233054
    36  F   -0.255741
    37  H    0.329798
    38  H    0.184281
    39  H    0.167081
 Sum of Mulliken charges =   0.00000

 Dipole moment (field-independent basis, Debye):
    X=             -0.9338    Y=              1.7280    Z=             -1.4201  Tot=              2.4237
 Quadrupole moment (field-independent basis, Debye-Ang):
   XX=           -203.5019   YY=           -192.9364   ZZ=           -195.5393
   XY=             -0.7785   XZ=              9.3551   YZ=              2.9067

 Normal termination of Gaussian 09 at Sun Mar  3 18:02:45 2024.
