 Gaussian 09, Revision D.01,
 Gaussian 09:  ES64L-G09RevD.01 24-Apr-2013

 ----------------------------------------------------------------------
 #p CAM-B3LYP/6-31G(d,p) SCRF=(PCM,Solvent=Generic,Read) NoSymm out=wfn
 ----------------------------------------------------------------------

 -------------------
 Title A895623832_p1
 -------------------
 Symbolic Z-matrix:
 Charge =  1 Multiplicity = 2

                          Input orientation:
 ---------------------------------------------------------------------
 Center     Atomic      Atomic             Coordinates (Angstroms)
 Number     Number       Type             X           Y           Z
 ---------------------------------------------------------------------
      1          8           0       -1.268442   -2.690776    1.751235
      2          6           0       -0.668533   -2.017180    0.922879
      3          7           0        0.380262   -2.541647    0.230639
      4          6           0        1.308854   -1.807295   -0.445309
      5          8           0        2.398671   -2.291519   -0.726882
      6          7           0        0.934637   -0.530983   -0.748502
      7          6           0        1.801042    0.298341   -1.571161
      8          9           0        2.243590   -0.433767   -2.624085
      9          9           0        1.013981    1.263110   -2.133373
     10          6           0        2.968101    0.978338   -0.813056
     11          9           0        2.407891    1.855296    0.082571
     12          8           0        3.683146    0.027613   -0.023303
     13          6           0        4.866013    0.537561    0.526295
     14          9           0        4.673117    1.767102    1.030200
     15          9           0        5.269381   -0.277847    1.517703
     16          9           0        5.817781    0.571753   -0.420485
     17          6           0        3.756906    1.746214   -1.882245
     18          9           0        4.711161    2.533315   -1.329469
     19          9           0        4.386827    0.915035   -2.741579
     20          9           0        2.974880    2.569159   -2.616757
     21          6           0       -0.416054   -0.113042   -0.534771
     22          7           0       -0.974691   -0.716313    0.643095
     23          6           0       -2.158598   -0.106191    1.223653
     24          9           0       -1.866284    1.230739    1.267712
     25          9           0       -2.285300   -0.450369    2.530465
     26          6           0       -3.520880   -0.266443    0.490536
     27          9           0       -3.387693    0.188900   -0.798659
     28          8           0       -4.637846    0.440602    1.053902
     29          6           0       -4.427454    1.816861    1.214207
     30          9           0       -3.715150    2.330346    0.197565
     31          9           0       -5.625416    2.429776    1.252820
     32          9           0       -3.797073    2.035691    2.379653
     33          6           0       -3.907239   -1.739809    0.426580
     34          9           0       -3.028280   -2.462230   -0.305999
     35          9           0       -4.023863   -2.305854    1.643748
     36          9           0       -5.111333   -1.889213   -0.188918
     37          1           0        0.670001   -3.468973    0.508625
     38          1           0       -0.431762    0.974398   -0.415352
     39          1           0       -1.014353   -0.400695   -1.406295
 ---------------------------------------------------------------------

 SCF Done:  E(UCAM-B3LYP) =  -2682.20400074     A.U. after   98 cycles

 Alpha  occ. eigenvalues --  -24.90243 -24.89607 -24.87548 -24.87502 -24.87407
 Alpha  occ. eigenvalues --  -24.87391 -24.87349 -24.86610 -24.86445 -24.86370
 Alpha  occ. eigenvalues --  -24.86271 -24.86170 -24.86105 -24.86010 -24.85894
 Alpha  occ. eigenvalues --  -24.85408 -24.85345 -24.85222 -19.38044 -19.37425
 Alpha  occ. eigenvalues --  -19.36044 -19.30672 -14.65074 -14.58497 -14.56693
 Alpha  occ. eigenvalues --  -10.62756 -10.61891 -10.60345 -10.59121 -10.58560
 Alpha  occ. eigenvalues --  -10.57994 -10.54737 -10.54262 -10.52830 -10.51367
 Alpha  occ. eigenvalues --  -10.47692  -1.46706  -1.45875  -1.45610  -1.44827
 Alpha  occ. eigenvalues --   -1.44573  -1.43439  -1.40121  -1.39661  -1.38862
 Alpha  occ. eigenvalues --   -1.36523  -1.36294  -1.36282  -1.36113  -1.35746
 Alpha  occ. eigenvalues --   -1.35736  -1.35229  -1.34990  -1.34685  -1.31760
 Alpha  occ. eigenvalues --   -1.26217  -1.25010  -1.23480  -1.22121  -1.15287
 Alpha  occ. eigenvalues --   -1.13692  -0.99415  -0.97557  -0.94452  -0.91769
 Alpha  occ. eigenvalues --   -0.89837  -0.86027  -0.84206  -0.83579  -0.81955
 Alpha  occ. eigenvalues --   -0.80281  -0.79513  -0.78304  -0.76977  -0.76696
 Alpha  occ. eigenvalues --   -0.75740  -0.74965  -0.74183  -0.73998  -0.73063
 Alpha  occ. eigenvalues --   -0.72668  -0.72363  -0.72014  -0.71655  -0.71495
 Alpha  occ. eigenvalues --   -0.71188  -0.70651  -0.70430  -0.69983  -0.69768
 Alpha  occ. eigenvalues --   -0.69341  -0.68802  -0.67628  -0.65149  -0.64180
 Alpha  occ. eigenvalues --   -0.63765  -0.63167  -0.62357  -0.61590  -0.61159
 Alpha  occ. eigenvalues --   -0.60677  -0.60510  -0.60160  -0.59988  -0.59864
 Alpha  occ. eigenvalues --   -0.59546  -0.59285  -0.58728  -0.58360  -0.58097
 Alpha  occ. eigenvalues --   -0.58029  -0.57640  -0.57429  -0.57301  -0.57002
 Alpha  occ. eigenvalues --   -0.56362  -0.56166  -0.55605  -0.55527  -0.55385
 Alpha  occ. eigenvalues --   -0.55195  -0.55117  -0.54348  -0.54240  -0.53987
 Alpha  occ. eigenvalues --   -0.53806  -0.53489  -0.53150  -0.52837  -0.52489
 Alpha  occ. eigenvalues --   -0.52308  -0.52242  -0.52020  -0.51870  -0.50469
 Alpha  occ. eigenvalues --   -0.49510  -0.49323  -0.48730  -0.48099  -0.46431
 Alpha  occ. eigenvalues --   -0.44883  -0.43964
 Alpha virt. eigenvalues --   -0.07564  -0.00133   0.00390   0.02076   0.02793
 Alpha virt. eigenvalues --    0.03955   0.07626   0.08053   0.09181   0.09962
 Alpha virt. eigenvalues --    0.11397   0.12018   0.12601   0.13197   0.15679

  Beta  occ. eigenvalues --  -24.90242 -24.89574 -24.87548 -24.87502 -24.87401
  Beta  occ. eigenvalues --  -24.87386 -24.87342 -24.86610 -24.86444 -24.86369
  Beta  occ. eigenvalues --  -24.86271 -24.86169 -24.86105 -24.86010 -24.85886
  Beta  occ. eigenvalues --  -24.85408 -24.85345 -24.85221 -19.37416 -19.36846
  Beta  occ. eigenvalues --  -19.36043 -19.30314 -14.64209 -14.58329 -14.56739
  Beta  occ. eigenvalues --  -10.62755 -10.61891 -10.60383 -10.59113 -10.58560
  Beta  occ. eigenvalues --  -10.58002 -10.55004 -10.54224 -10.52827 -10.51463
  Beta  occ. eigenvalues --  -10.47678  -1.46660  -1.45853  -1.45607  -1.44826
  Beta  occ. eigenvalues --   -1.44558  -1.43424  -1.40107  -1.39652  -1.38819
  Beta  occ. eigenvalues --   -1.36512  -1.36293  -1.36277  -1.36110  -1.35746
  Beta  occ. eigenvalues --   -1.35734  -1.35218  -1.34989  -1.34684  -1.30376
  Beta  occ. eigenvalues --   -1.25344  -1.24920  -1.23476  -1.20500  -1.14414
  Beta  occ. eigenvalues --   -1.13364  -0.99244  -0.97473  -0.93973  -0.91565
  Beta  occ. eigenvalues --   -0.89757  -0.85965  -0.84108  -0.83558  -0.81816
  Beta  occ. eigenvalues --   -0.80159  -0.79291  -0.78224  -0.76637  -0.76465
  Beta  occ. eigenvalues --   -0.75655  -0.74851  -0.74155  -0.73827  -0.72648
  Beta  occ. eigenvalues --   -0.72625  -0.72236  -0.71962  -0.71453  -0.71292
  Beta  occ. eigenvalues --   -0.70911  -0.70588  -0.70295  -0.69866  -0.69675
  Beta  occ. eigenvalues --   -0.68948  -0.68628  -0.66954  -0.63990  -0.63641
  Beta  occ. eigenvalues --   -0.63204  -0.62277  -0.61550  -0.61375  -0.61003
  Beta  occ. eigenvalues --   -0.60582  -0.60292  -0.59965  -0.59815  -0.59771
  Beta  occ. eigenvalues --   -0.59337  -0.59247  -0.58693  -0.58215  -0.58007
  Beta  occ. eigenvalues --   -0.57857  -0.57604  -0.57351  -0.57136  -0.56902
  Beta  occ. eigenvalues --   -0.56336  -0.56029  -0.55514  -0.55454  -0.55254
  Beta  occ. eigenvalues --   -0.55148  -0.55027  -0.54334  -0.54188  -0.53919
  Beta  occ. eigenvalues --   -0.53778  -0.53417  -0.53125  -0.52791  -0.52471
  Beta  occ. eigenvalues --   -0.52234  -0.52021  -0.51911  -0.50337  -0.49287
  Beta  occ. eigenvalues --   -0.48876  -0.48656  -0.48023  -0.43872  -0.43560
  Beta  occ. eigenvalues --   -0.42630
  Beta virt. eigenvalues --   -0.29834  -0.05594  -0.00073   0.00676   0.02416
  Beta virt. eigenvalues --    0.02955   0.04261   0.07694   0.08177   0.09384
  Beta virt. eigenvalues --    0.10215   0.11729   0.12140   0.12714   0.13317

 Mulliken charges and spin densities:
               1          2
     1  O   -0.428880   0.143153
     2  C    0.831631  -0.055673
     3  N   -0.598702  -0.010777
     4  C    0.875181  -0.153111
     5  O   -0.304729   0.470472
     6  N   -0.490958   0.405575
     7  C    0.746886  -0.021728
     8  F   -0.217422   0.009039
     9  F   -0.241951   0.000574
    10  C    0.443181   0.013696
    11  F   -0.256273   0.000446
    12  O   -0.508771   0.002549
    13  C    1.005702   0.000216
    14  F   -0.237770   0.000274
    15  F   -0.231025   0.000046
    16  F   -0.236286  -0.000045
    17  C    0.829726   0.003024
    18  F   -0.245497   0.002065
    19  F   -0.236068   0.000199
    20  F   -0.239111   0.000075
    21  C    0.085530  -0.013191
    22  N   -0.563073   0.081659
    23  C    0.748208  -0.004024
    24  F   -0.266259   0.001563
    25  F   -0.224918   0.001728
    26  C    0.428307   0.000769
    27  F   -0.265659   0.001021
    28  O   -0.502513   0.000500
    29  C    1.007623   0.000004
    30  F   -0.247286   0.000000
    31  F   -0.232874   0.000010
    32  F   -0.241286   0.000016
    33  C    0.818271  -0.000127
    34  F   -0.249980   0.000170
    35  F   -0.227258   0.000333
    36  F   -0.245736   0.000033
    37  H    0.372533   0.000244
    38  H    0.263812   0.031130
    39  H    0.283695   0.088093
 Sum of Mulliken charges =   1.00000   1.00000

 Dipole moment (field-independent basis, Debye):
    X=              2.1858    Y=             -3.2504    Z=             -2.8322  Tot=              4.8336
 Quadrupole moment (field-independent basis, Debye-Ang):
   XX=           -177.2417   YY=           -173.6829   ZZ=           -184.9681
   XY=             -4.2921   XZ=              2.6355   YZ=              1.7236

 Normal termination of Gaussian 09 at Sun Mar  3 18:07:40 2024.
