 Gaussian 09, Revision D.01,
 Gaussian 09:  ES64L-G09RevD.01 24-Apr-2013

 ----------------------------------------------------------------------
 #p CAM-B3LYP/6-31G(d,p) SCRF=(PCM,Solvent=Generic,Read) NoSymm out=wfn
 ----------------------------------------------------------------------

 --------------------
 Title A1342961132_p1
 --------------------
 Symbolic Z-matrix:
 Charge =  1 Multiplicity = 2

                          Input orientation:
 ---------------------------------------------------------------------
 Center     Atomic      Atomic             Coordinates (Angstroms)
 Number     Number       Type             X           Y           Z
 ---------------------------------------------------------------------
      1          6           0        0.803810    2.472027   -3.577777
      2          7           0        0.684065    1.733684   -2.331372
      3          6           0       -0.419576    0.928484   -2.160602
      4          8           0       -1.315721    0.846307   -3.000800
      5          7           0       -0.446617    0.183047   -1.001356
      6          6           0       -1.621853   -0.668353   -0.751733
      7          6           0       -2.724150    0.081222    0.011625
      8          9           0       -3.040451    1.210565   -0.675632
      9          9           0       -2.226436    0.504471    1.205083
     10          6           0       -3.968473   -0.784722    0.236078
     11          9           0       -4.446101   -1.151091   -0.991738
     12          8           0       -3.558896   -1.999930    0.875563
     13          6           0       -4.642271   -2.788323    1.302026
     14          9           0       -4.191081   -4.033106    1.542544
     15          9           0       -5.138603   -2.281310    2.441194
     16          9           0       -5.597491   -2.848159    0.362115
     17          6           0       -4.998958    0.088559    0.972866
     18          9           0       -6.187735   -0.548584    1.101269
     19          9           0       -4.587268    0.401702    2.222168
     20          9           0       -5.260505    1.247017    0.328932
     21          6           0        0.534161    0.243765   -0.036506
     22          8           0        0.488586   -0.480721    0.956495
     23          7           0        1.568096    1.112151   -0.257317
     24          6           0        2.666755    1.147044    0.695306
     25          9           0        2.191139    0.972269    1.957851
     26          9           0        3.139341    2.436387    0.729442
     27          6           0        3.875776    0.203681    0.423469
     28          9           0        4.065194    0.124580   -0.941073
     29          8           0        5.138240    0.723720    0.874673
     30          6           0        5.322689    0.683525    2.265504
     31          9           0        6.428025    1.384440    2.574568
     32          9           0        5.491512   -0.585914    2.664572
     33          9           0        4.276139    1.223804    2.900512
     34          6           0        3.546863   -1.216202    0.882636
     35          9           0        4.622180   -2.029491    0.724840
     36          9           0        2.555623   -1.760558    0.139549
     37          9           0        3.186015   -1.285408    2.178217
     38          6           0        1.755775    1.743876   -1.463242
     39          8           0        2.824126    2.271077   -1.769825
     40          1           0        1.275200    1.819469   -4.319553
     41          1           0       -0.179207    2.778079   -3.947841
     42          1           0        1.422237    3.364816   -3.444937
     43          1           0       -1.297944   -1.548517   -0.185759
     44          1           0       -2.012210   -1.023542   -1.712032
 ---------------------------------------------------------------------

 SCF Done:  E(UCAM-B3LYP) =  -2834.80078543     A.U. after   86 cycles

 Alpha  occ. eigenvalues --  -24.87368 -24.86975 -24.86708 -24.86477 -24.86264
 Alpha  occ. eigenvalues --  -24.86144 -24.86134 -24.85675 -24.85635 -24.85627
 Alpha  occ. eigenvalues --  -24.85601 -24.85453 -24.85396 -24.85336 -24.85277
 Alpha  occ. eigenvalues --  -24.85176 -24.85146 -24.84639 -19.42457 -19.35922
 Alpha  occ. eigenvalues --  -19.35601 -19.34765 -19.33920 -14.61423 -14.60484
 Alpha  occ. eigenvalues --  -14.59883 -10.61873 -10.61625 -10.58338 -10.57982
 Alpha  occ. eigenvalues --  -10.57546 -10.56304 -10.54498 -10.53806 -10.52646
 Alpha  occ. eigenvalues --  -10.52218 -10.51184 -10.40843 -10.36925  -1.45802
 Alpha  occ. eigenvalues --   -1.45166  -1.44636  -1.43719  -1.43191  -1.41581
 Alpha  occ. eigenvalues --   -1.38886  -1.38315  -1.36291  -1.36116  -1.35599
 Alpha  occ. eigenvalues --   -1.35488  -1.35316  -1.35159  -1.35061  -1.34770
 Alpha  occ. eigenvalues --   -1.34338  -1.34083  -1.33901  -1.29641  -1.26691
 Alpha  occ. eigenvalues --   -1.23248  -1.23031  -1.19627  -1.16334  -1.15077
 Alpha  occ. eigenvalues --   -0.98025  -0.96896  -0.93901  -0.91619  -0.91134
 Alpha  occ. eigenvalues --   -0.87115  -0.85174  -0.84350  -0.84020  -0.83140
 Alpha  occ. eigenvalues --   -0.81546  -0.79415  -0.77850  -0.76672  -0.75765
 Alpha  occ. eigenvalues --   -0.75113  -0.74334  -0.73983  -0.73011  -0.72684
 Alpha  occ. eigenvalues --   -0.72293  -0.71799  -0.71415  -0.71136  -0.70779
 Alpha  occ. eigenvalues --   -0.70730  -0.70442  -0.69649  -0.69085  -0.68752
 Alpha  occ. eigenvalues --   -0.68144  -0.67571  -0.66952  -0.65291  -0.64324
 Alpha  occ. eigenvalues --   -0.64061  -0.63612  -0.62819  -0.62222  -0.61709
 Alpha  occ. eigenvalues --   -0.61374  -0.60416  -0.60109  -0.59621  -0.59538
 Alpha  occ. eigenvalues --   -0.59126  -0.58902  -0.58600  -0.58319  -0.58126
 Alpha  occ. eigenvalues --   -0.57879  -0.57711  -0.57372  -0.57227  -0.57092
 Alpha  occ. eigenvalues --   -0.56884  -0.56380  -0.56191  -0.55619  -0.55306
 Alpha  occ. eigenvalues --   -0.55097  -0.55069  -0.54829  -0.54304  -0.54171
 Alpha  occ. eigenvalues --   -0.54001  -0.53923  -0.53732  -0.53282  -0.53243
 Alpha  occ. eigenvalues --   -0.53086  -0.52852  -0.52368  -0.52320  -0.51945
 Alpha  occ. eigenvalues --   -0.51870  -0.51536  -0.51214  -0.50921  -0.50890
 Alpha  occ. eigenvalues --   -0.49452  -0.49297  -0.47875  -0.47680  -0.46801
 Alpha  occ. eigenvalues --   -0.46033  -0.45393  -0.44037
 Alpha virt. eigenvalues --   -0.08898  -0.06649   0.01256   0.02277   0.03339
 Alpha virt. eigenvalues --    0.04193   0.05594   0.09095   0.10008   0.10736
 Alpha virt. eigenvalues --    0.10819   0.12629   0.12954   0.14192   0.15170

  Beta  occ. eigenvalues --  -24.87341 -24.86975 -24.86703 -24.86459 -24.86264
  Beta  occ. eigenvalues --  -24.86134 -24.86133 -24.85673 -24.85635 -24.85622
  Beta  occ. eigenvalues --  -24.85601 -24.85453 -24.85396 -24.85336 -24.85277
  Beta  occ. eigenvalues --  -24.85176 -24.85146 -24.84639 -19.40919 -19.35922
  Beta  occ. eigenvalues --  -19.35601 -19.34158 -19.33432 -14.61255 -14.60465
  Beta  occ. eigenvalues --  -14.59809 -10.61873 -10.61625 -10.58338 -10.57984
  Beta  occ. eigenvalues --  -10.57546 -10.56428 -10.54571 -10.53852 -10.52648
  Beta  occ. eigenvalues --  -10.52211 -10.51183 -10.40824 -10.36909  -1.45800
  Beta  occ. eigenvalues --   -1.45166  -1.44635  -1.43718  -1.43153  -1.41565
  Beta  occ. eigenvalues --   -1.38874  -1.38312  -1.36290  -1.36105  -1.35561
  Beta  occ. eigenvalues --   -1.35488  -1.35307  -1.35158  -1.35054  -1.34767
  Beta  occ. eigenvalues --   -1.34325  -1.34079  -1.32102  -1.28309  -1.25880
  Beta  occ. eigenvalues --   -1.23247  -1.23031  -1.18443  -1.15872  -1.14588
  Beta  occ. eigenvalues --   -0.97981  -0.96852  -0.93821  -0.91294  -0.90707
  Beta  occ. eigenvalues --   -0.86815  -0.85117  -0.84193  -0.83768  -0.82313
  Beta  occ. eigenvalues --   -0.81409  -0.79364  -0.77822  -0.76654  -0.75735
  Beta  occ. eigenvalues --   -0.75096  -0.74298  -0.73940  -0.72980  -0.72668
  Beta  occ. eigenvalues --   -0.72284  -0.71743  -0.71411  -0.71086  -0.70701
  Beta  occ. eigenvalues --   -0.70570  -0.70262  -0.69437  -0.68834  -0.68131
  Beta  occ. eigenvalues --   -0.68043  -0.67541  -0.66730  -0.64993  -0.63739
  Beta  occ. eigenvalues --   -0.63703  -0.63226  -0.62292  -0.61803  -0.61553
  Beta  occ. eigenvalues --   -0.60858  -0.60168  -0.59979  -0.59590  -0.59499
  Beta  occ. eigenvalues --   -0.59102  -0.58742  -0.58568  -0.58259  -0.58028
  Beta  occ. eigenvalues --   -0.57848  -0.57623  -0.57332  -0.57141  -0.56937
  Beta  occ. eigenvalues --   -0.56833  -0.56050  -0.55594  -0.55284  -0.54986
  Beta  occ. eigenvalues --   -0.54902  -0.54701  -0.54220  -0.54135  -0.53925
  Beta  occ. eigenvalues --   -0.53905  -0.53706  -0.53278  -0.53191  -0.53017
  Beta  occ. eigenvalues --   -0.52830  -0.52358  -0.52305  -0.51940  -0.51845
  Beta  occ. eigenvalues --   -0.51386  -0.51151  -0.50896  -0.50851  -0.48960
  Beta  occ. eigenvalues --   -0.47939  -0.47450  -0.46166  -0.45379  -0.44386
  Beta  occ. eigenvalues --   -0.43755  -0.43239
  Beta virt. eigenvalues --   -0.31013  -0.08555  -0.06415   0.01273   0.02309
  Beta virt. eigenvalues --    0.03403   0.04200   0.05702   0.09253   0.10094
  Beta virt. eigenvalues --    0.10794   0.10911   0.12721   0.13102   0.14287

 Mulliken charges and spin densities:
               1          2
     1  C   -0.222297   0.004147
     2  N   -0.570392   0.035930
     3  C    0.946563  -0.071548
     4  O   -0.266467   0.582061
     5  N   -0.587019   0.079420
     6  C   -0.158915   0.004860
     7  C    0.599857   0.003484
     8  F   -0.268726   0.002685
     9  F   -0.262961   0.001269
    10  C    0.425590   0.000486
    11  F   -0.268652   0.000367
    12  O   -0.521533   0.000022
    13  C    1.001602  -0.000002
    14  F   -0.236057  -0.000001
    15  F   -0.238525   0.000000
    16  F   -0.239274   0.000001
    17  C    0.818709   0.000213
    18  F   -0.253217   0.000108
    19  F   -0.242896   0.000029
    20  F   -0.242877   0.000057
    21  C    0.910874  -0.045101
    22  O   -0.387710   0.229328
    23  N   -0.629283   0.010236
    24  C    0.755168  -0.002150
    25  F   -0.233515   0.006282
    26  F   -0.256634   0.004305
    27  C    0.442753  -0.000207
    28  F   -0.268590   0.001217
    29  O   -0.486857  -0.000072
    30  C    0.982194  -0.000014
    31  F   -0.231606   0.000005
    32  F   -0.236214   0.000001
    33  F   -0.233801   0.000048
    34  C    0.820100  -0.000294
    35  F   -0.249917   0.000001
    36  F   -0.248599   0.000024
    37  F   -0.237764   0.000106
    38  C    0.904789  -0.030535
    39  O   -0.391021   0.182808
    40  H    0.202651  -0.000172
    41  H    0.196011  -0.000430
    42  H    0.206651   0.001258
    43  H    0.235616  -0.001470
    44  H    0.222195   0.001236
 Sum of Mulliken charges =   1.00000   1.00000

 Dipole moment (field-independent basis, Debye):
    X=              0.1012    Y=              3.5556    Z=             -9.1598  Tot=              9.8262
 Quadrupole moment (field-independent basis, Debye-Ang):
   XX=           -197.8931   YY=           -190.1180   ZZ=           -177.2369
   XY=              5.9093   XZ=              1.8611   YZ=            -12.8487

 Normal termination of Gaussian 09 at Sun Mar  3 17:54:26 2024.
