 Gaussian 09, Revision D.01,
 Gaussian 09:  ES64L-G09RevD.01 24-Apr-2013

 ----------------------------------------------------------------------
 #p CAM-B3LYP/6-31G(d,p) SCRF=(PCM,Solvent=Generic,Read) NoSymm out=wfn
 ----------------------------------------------------------------------

 -------------------
 Title A1342961132_0
 -------------------
 Symbolic Z-matrix:
 Charge =  0 Multiplicity = 1

                          Input orientation:
 ---------------------------------------------------------------------
 Center     Atomic      Atomic             Coordinates (Angstroms)
 Number     Number       Type             X           Y           Z
 ---------------------------------------------------------------------
      1          6           0        0.803810    2.472027   -3.577777
      2          7           0        0.684065    1.733684   -2.331372
      3          6           0       -0.419576    0.928484   -2.160602
      4          8           0       -1.315721    0.846307   -3.000800
      5          7           0       -0.446617    0.183047   -1.001356
      6          6           0       -1.621853   -0.668353   -0.751733
      7          6           0       -2.724150    0.081222    0.011625
      8          9           0       -3.040451    1.210565   -0.675632
      9          9           0       -2.226436    0.504471    1.205083
     10          6           0       -3.968473   -0.784722    0.236078
     11          9           0       -4.446101   -1.151091   -0.991738
     12          8           0       -3.558896   -1.999930    0.875563
     13          6           0       -4.642271   -2.788323    1.302026
     14          9           0       -4.191081   -4.033106    1.542544
     15          9           0       -5.138603   -2.281310    2.441194
     16          9           0       -5.597491   -2.848159    0.362115
     17          6           0       -4.998958    0.088559    0.972866
     18          9           0       -6.187735   -0.548584    1.101269
     19          9           0       -4.587268    0.401702    2.222168
     20          9           0       -5.260505    1.247017    0.328932
     21          6           0        0.534161    0.243765   -0.036506
     22          8           0        0.488586   -0.480721    0.956495
     23          7           0        1.568096    1.112151   -0.257317
     24          6           0        2.666755    1.147044    0.695306
     25          9           0        2.191139    0.972269    1.957851
     26          9           0        3.139341    2.436387    0.729442
     27          6           0        3.875776    0.203681    0.423469
     28          9           0        4.065194    0.124580   -0.941073
     29          8           0        5.138240    0.723720    0.874673
     30          6           0        5.322689    0.683525    2.265504
     31          9           0        6.428025    1.384440    2.574568
     32          9           0        5.491512   -0.585914    2.664572
     33          9           0        4.276139    1.223804    2.900512
     34          6           0        3.546863   -1.216202    0.882636
     35          9           0        4.622180   -2.029491    0.724840
     36          9           0        2.555623   -1.760558    0.139549
     37          9           0        3.186015   -1.285408    2.178217
     38          6           0        1.755775    1.743876   -1.463242
     39          8           0        2.824126    2.271077   -1.769825
     40          1           0        1.275200    1.819469   -4.319553
     41          1           0       -0.179207    2.778079   -3.947841
     42          1           0        1.422237    3.364816   -3.444937
     43          1           0       -1.297944   -1.548517   -0.185759
     44          1           0       -2.012210   -1.023542   -1.712032
 ---------------------------------------------------------------------

 SCF Done:  E(RCAM-B3LYP) =  -2835.13468101     A.U. after   13 cycles

 Alpha  occ. eigenvalues --  -24.84007 -24.83828 -24.83636 -24.83614 -24.83585
 Alpha  occ. eigenvalues --  -24.83579 -24.83520 -24.83268 -24.83226 -24.83103
 Alpha  occ. eigenvalues --  -24.83048 -24.82851 -24.82639 -24.82621 -24.82532
 Alpha  occ. eigenvalues --  -24.81840 -24.81636 -24.81473 -19.33105 -19.33093
 Alpha  occ. eigenvalues --  -19.23558 -19.23454 -19.23220 -14.52777 -14.51058
 Alpha  occ. eigenvalues --  -14.50217 -10.59673 -10.59659 -10.55314 -10.55246
 Alpha  occ. eigenvalues --  -10.53070 -10.49035 -10.48117 -10.47589 -10.45649
 Alpha  occ. eigenvalues --  -10.45375 -10.44572 -10.34384 -10.31012  -1.43499
 Alpha  occ. eigenvalues --   -1.43292  -1.41794  -1.41582  -1.38613  -1.37443
 Alpha  occ. eigenvalues --   -1.35479  -1.35320  -1.34000  -1.33673  -1.33482
 Alpha  occ. eigenvalues --   -1.33358  -1.32779  -1.32590  -1.32154  -1.32084
 Alpha  occ. eigenvalues --   -1.31038  -1.30558  -1.22295  -1.20539  -1.20460
 Alpha  occ. eigenvalues --   -1.17183  -1.16975  -1.09201  -1.07161  -1.05787
 Alpha  occ. eigenvalues --   -0.93688  -0.92950  -0.88488  -0.84871  -0.83395
 Alpha  occ. eigenvalues --   -0.82357  -0.82250  -0.80032  -0.78314  -0.76695
 Alpha  occ. eigenvalues --   -0.75390  -0.74598  -0.73633  -0.73308  -0.72707
 Alpha  occ. eigenvalues --   -0.71593  -0.71145  -0.70959  -0.70482  -0.70140
 Alpha  occ. eigenvalues --   -0.69326  -0.68822  -0.68556  -0.68436  -0.67569
 Alpha  occ. eigenvalues --   -0.67138  -0.65995  -0.65047  -0.64486  -0.63875
 Alpha  occ. eigenvalues --   -0.63567  -0.61492  -0.59941  -0.59508  -0.58816
 Alpha  occ. eigenvalues --   -0.57584  -0.57345  -0.57216  -0.57031  -0.56982
 Alpha  occ. eigenvalues --   -0.56416  -0.56172  -0.55990  -0.55718  -0.55409
 Alpha  occ. eigenvalues --   -0.55340  -0.55106  -0.54959  -0.54707  -0.54538
 Alpha  occ. eigenvalues --   -0.54248  -0.54000  -0.53581  -0.53510  -0.53246
 Alpha  occ. eigenvalues --   -0.52762  -0.52701  -0.52445  -0.52064  -0.51793
 Alpha  occ. eigenvalues --   -0.51454  -0.51385  -0.50963  -0.50750  -0.50576
 Alpha  occ. eigenvalues --   -0.50461  -0.50113  -0.49967  -0.49893  -0.49721
 Alpha  occ. eigenvalues --   -0.49219  -0.48924  -0.48847  -0.48661  -0.48119
 Alpha  occ. eigenvalues --   -0.47961  -0.47912  -0.47595  -0.47092  -0.45362
 Alpha  occ. eigenvalues --   -0.43849  -0.43177  -0.39644  -0.39302  -0.38391
 Alpha  occ. eigenvalues --   -0.36841  -0.35961  -0.35479
 Alpha virt. eigenvalues --    0.01161   0.01711   0.05914   0.06860   0.07292
 Alpha virt. eigenvalues --    0.08838   0.12209   0.14831   0.14974   0.15697
 Alpha virt. eigenvalues --    0.16097   0.17198   0.17777   0.18799   0.18911

 Mulliken charges:
               1
     1  C   -0.184583
     2  N   -0.571363
     3  C    0.832681
     4  O   -0.520332
     5  N   -0.599626
     6  C   -0.110340
     7  C    0.588407
     8  F   -0.274976
     9  F   -0.273940
    10  C    0.423084
    11  F   -0.274022
    12  O   -0.519988
    13  C    0.997022
    14  F   -0.239538
    15  F   -0.242206
    16  F   -0.242247
    17  C    0.812040
    18  F   -0.259529
    19  F   -0.246547
    20  F   -0.245042
    21  C    0.843345
    22  O   -0.510588
    23  N   -0.627116
    24  C    0.760925
    25  F   -0.247873
    26  F   -0.273356
    27  C    0.435623
    28  F   -0.271804
    29  O   -0.496483
    30  C    0.977044
    31  F   -0.237419
    32  F   -0.240513
    33  F   -0.233977
    34  C    0.817756
    35  F   -0.259697
    36  F   -0.245696
    37  F   -0.243408
    38  C    0.836564
    39  O   -0.503351
    40  H    0.158142
    41  H    0.166039
    42  H    0.163759
    43  H    0.194574
    44  H    0.188551
 Sum of Mulliken charges =   0.00000

 Dipole moment (field-independent basis, Debye):
    X=             -0.7320    Y=             -0.3843    Z=             -2.2584  Tot=              2.4050
 Quadrupole moment (field-independent basis, Debye-Ang):
   XX=           -222.0957   YY=           -203.4487   ZZ=           -205.9845
   XY=             -0.2434   XZ=             -1.1357   YZ=             -1.0634

 Normal termination of Gaussian 09 at Sun Mar  3 17:47:54 2024.
