 Gaussian 09, Revision D.01,
 Gaussian 09:  ES64L-G09RevD.01 24-Apr-2013

 ----------------------------------------------------------------------
 #p CAM-B3LYP/6-31G(d,p) opt SCRF=(PCM,Solvent=Generic,Read) NoSymm out
 =wfn
 ----------------------------------------------------------------------

 --------------
 Title APN0_neu
 --------------
 Symbolic Z-matrix:
 Charge =  0 Multiplicity = 1

 SCF Done:  E(RCAM-B3LYP) =  -2075.52174341     A.U. after   14 cycles
 SCF Done:  E(RCAM-B3LYP) =  -2075.54106152     A.U. after   13 cycles
 SCF Done:  E(RCAM-B3LYP) =  -2075.54775330     A.U. after   13 cycles
 SCF Done:  E(RCAM-B3LYP) =  -2075.54980720     A.U. after   12 cycles
 SCF Done:  E(RCAM-B3LYP) =  -2075.54981488     A.U. after   13 cycles
 SCF Done:  E(RCAM-B3LYP) =  -2075.55108748     A.U. after   12 cycles
 SCF Done:  E(RCAM-B3LYP) =  -2075.55154250     A.U. after   12 cycles
 SCF Done:  E(RCAM-B3LYP) =  -2075.55180115     A.U. after   14 cycles
 SCF Done:  E(RCAM-B3LYP) =  -2075.55208373     A.U. after   12 cycles
 SCF Done:  E(RCAM-B3LYP) =  -2075.55214899     A.U. after   11 cycles
 SCF Done:  E(RCAM-B3LYP) =  -2075.55218866     A.U. after   10 cycles
 SCF Done:  E(RCAM-B3LYP) =  -2075.55219044     A.U. after    9 cycles
 SCF Done:  E(RCAM-B3LYP) =  -2075.55219140     A.U. after    9 cycles
 SCF Done:  E(RCAM-B3LYP) =  -2075.55219204     A.U. after    9 cycles
 SCF Done:  E(RCAM-B3LYP) =  -2075.55219228     A.U. after    8 cycles
 SCF Done:  E(RCAM-B3LYP) =  -2075.55219244     A.U. after    8 cycles
 SCF Done:  E(RCAM-B3LYP) =  -2075.55219253     A.U. after    7 cycles
 SCF Done:  E(RCAM-B3LYP) =  -2075.55219257     A.U. after    7 cycles
 SCF Done:  E(RCAM-B3LYP) =  -2075.55219259     A.U. after    6 cycles
 SCF Done:  E(RCAM-B3LYP) =  -2075.55219260     A.U. after    6 cycles
 Optimization completed.
    -- Stationary point found.

                          Input orientation:
 ---------------------------------------------------------------------
 Center     Atomic      Atomic             Coordinates (Angstroms)
 Number     Number       Type             X           Y           Z
 ---------------------------------------------------------------------
      1          9           0        0.949214   -3.443659   -0.612840
      2          6           0        1.433957   -2.501057    0.192929
      3          9           0        1.241036   -2.887879    1.456030
      4          6           0        2.932629   -2.222837   -0.081394
      5          9           0        3.230104   -2.597735   -1.333788
      6          9           0        3.717011   -2.868635    0.787904
      7          6           0        3.028859   -0.694703    0.080835
      8          9           0        3.076586   -0.462091    1.429298
      9          6           0        4.261644   -0.013071   -0.533068
     10          9           0        4.176604    1.302659   -0.264531
     11          6           0        5.576237   -0.529977    0.089911
     12          8           0        5.973830   -1.641721   -0.520666
     13          8           0        6.124121    0.019190    1.002227
     14          9           0        4.284145   -0.192519   -1.866038
     15          6           0        1.632541   -0.285850   -0.456883
     16          9           0        1.685906   -0.272664   -1.812030
     17          6           0        0.997989    1.040862   -0.000223
     18          9           0        1.046626    1.109515    1.356022
     19          6           0       -0.466164    1.166196   -0.492509
     20          7           0       -1.381857    0.999616    0.494874
     21          6           0       -2.780381    1.039192    0.375605
     22          6           0       -3.525004    0.828497    1.535020
     23          6           0       -4.916528    0.854204    1.487172
     24          6           0       -5.666835    0.635181    2.692344
     25          7           0       -6.267383    0.458268    3.664061
     26          6           0       -5.584301    1.088439    0.286795
     27          6           0       -4.827043    1.295806   -0.862916
     28          6           0       -5.496918    1.538540   -2.111262
     29          7           0       -6.041095    1.733446   -3.112212
     30          6           0       -3.431378    1.274796   -0.834937
     31          8           0       -0.680734    1.391513   -1.662984
     32          9           0        1.699256    2.060922   -0.513219
     33          8           0        0.774432   -1.302012   -0.022146
     34          1           0        6.785012   -1.954169   -0.085504
     35          1           0       -1.011519    0.843920    1.421963
     36          1           0       -3.025651    0.642332    2.479762
     37          1           0       -6.665918    1.108757    0.249819
     38          1           0       -2.859030    1.438725   -1.735885
 ---------------------------------------------------------------------

 Alpha  occ. eigenvalues --  -24.83926 -24.83721 -24.83684 -24.83333 -24.83329
 Alpha  occ. eigenvalues --  -24.83105 -24.82762 -24.82634 -24.82461 -24.82314
 Alpha  occ. eigenvalues --  -19.32671 -19.31098 -19.25694 -19.24476 -14.49545
 Alpha  occ. eigenvalues --  -14.43164 -14.42764 -10.53037 -10.49037 -10.48503
 Alpha  occ. eigenvalues --  -10.48454 -10.47625 -10.44102 -10.42915 -10.42130
 Alpha  occ. eigenvalues --  -10.36163 -10.34285 -10.34022 -10.32567 -10.32228
 Alpha  occ. eigenvalues --  -10.32154 -10.31962 -10.31349  -1.41560  -1.39341
 Alpha  occ. eigenvalues --   -1.39063  -1.38334  -1.35794  -1.35306  -1.33860
 Alpha  occ. eigenvalues --   -1.32814  -1.32651  -1.31928  -1.23337  -1.22716
 Alpha  occ. eigenvalues --   -1.17614  -1.14381  -1.07702  -1.01715  -1.00709
 Alpha  occ. eigenvalues --   -0.98540  -0.95410  -0.92236  -0.90370  -0.89145
 Alpha  occ. eigenvalues --   -0.87309  -0.83301  -0.78971  -0.78256  -0.77503
 Alpha  occ. eigenvalues --   -0.75700  -0.74130  -0.73381  -0.71787  -0.70954
 Alpha  occ. eigenvalues --   -0.69749  -0.69471  -0.68434  -0.68049  -0.67115
 Alpha  occ. eigenvalues --   -0.66883  -0.66420  -0.66131  -0.65212  -0.63952
 Alpha  occ. eigenvalues --   -0.63150  -0.61016  -0.59121  -0.59013  -0.58633
 Alpha  occ. eigenvalues --   -0.58461  -0.58038  -0.57443  -0.56075  -0.55636
 Alpha  occ. eigenvalues --   -0.55309  -0.55150  -0.54979  -0.54915  -0.54663
 Alpha  occ. eigenvalues --   -0.54123  -0.53740  -0.53344  -0.53217  -0.52926
 Alpha  occ. eigenvalues --   -0.52549  -0.51831  -0.51426  -0.51309  -0.50823
 Alpha  occ. eigenvalues --   -0.50394  -0.50220  -0.49385  -0.49175  -0.48923
 Alpha  occ. eigenvalues --   -0.48742  -0.46882  -0.45795  -0.45467  -0.45200
 Alpha  occ. eigenvalues --   -0.44717  -0.44600  -0.44145  -0.42444  -0.42222
 Alpha  occ. eigenvalues --   -0.42191  -0.41426  -0.39589  -0.38011  -0.36385
 Alpha  occ. eigenvalues --   -0.34369  -0.32229
 Alpha virt. eigenvalues --   -0.03656  -0.02656   0.00595   0.02417   0.06180
 Alpha virt. eigenvalues --    0.06732   0.08456   0.09552   0.10456   0.10458
 Alpha virt. eigenvalues --    0.10828   0.12199   0.13160   0.13964   0.15920

 Mulliken charges:
               1
     1  F   -0.239307
     2  C    0.781688
     3  F   -0.241977
     4  C    0.512836
     5  F   -0.252437
     6  F   -0.260536
     7  C    0.162956
     8  F   -0.293417
     9  C    0.603898
    10  F   -0.263126
    11  C    0.510709
    12  O   -0.463399
    13  O   -0.421707
    14  F   -0.256505
    15  C    0.500698
    16  F   -0.261015
    17  C    0.572856
    18  F   -0.279353
    19  C    0.547725
    20  N   -0.644156
    21  C    0.326490
    22  C   -0.117590
    23  C    0.098164
    24  C    0.228285
    25  N   -0.454513
    26  C   -0.070035
    27  C    0.079324
    28  C    0.235459
    29  N   -0.455040
    30  C   -0.077484
    31  O   -0.479945
    32  F   -0.254738
    33  O   -0.523415
    34  H    0.360145
    35  H    0.303787
    36  H    0.145911
    37  H    0.158029
    38  H    0.180733
 Sum of Mulliken charges =   0.00000

 Dipole moment (field-independent basis, Debye):
    X=              5.3057    Y=             -2.3959    Z=              2.4560  Tot=              6.3185
 Quadrupole moment (field-independent basis, Debye-Ang):
   XX=           -195.5160   YY=           -177.0411   ZZ=           -207.7952
   XY=            -10.2848   XZ=             -5.4538   YZ=              6.7607

 Normal termination of Gaussian 09 at Tue Feb  4 07:29:10 2025.
