 Gaussian 09, Revision D.01,
 Gaussian 09:  ES64L-G09RevD.01 24-Apr-2013

 ----------------------------------------------------------------------
 #p CAM-B3LYP/6-31G(d,p) SCRF=(PCM,Solvent=Generic,Read) NoSymm out=wfn
 ----------------------------------------------------------------------

 -------------------
 Title A1639138552_0
 -------------------
 Symbolic Z-matrix:
 Charge =  0 Multiplicity = 1

                          Input orientation:
 ---------------------------------------------------------------------
 Center     Atomic      Atomic             Coordinates (Angstroms)
 Number     Number       Type             X           Y           Z
 ---------------------------------------------------------------------
      1          6           0       -2.120506    3.310289   -1.149375
      2          6           0       -2.279526    2.290556   -0.016434
      3          6           0       -1.969887    2.912480    1.347852
      4          7           0       -1.517524    1.040994   -0.240160
      5          6           0       -2.160444   -0.149562    0.049168
      6          8           0       -3.294654   -0.172806    0.531761
      7          7           0       -1.448542   -1.311054   -0.193223
      8          6           0       -2.138990   -2.593238    0.074296
      9          6           0       -1.792394   -3.152295    1.456669
     10          6           0       -1.927225   -3.638812   -1.026021
     11          6           0       -0.085577   -1.300899   -0.409163
     12          8           0        0.596021   -2.321207   -0.324372
     13          7           0        0.485462   -0.084893   -0.685953
     14          6           0        1.922780   -0.057719   -0.911178
     15          9           0        2.256518    1.045626   -1.636072
     16          9           0        2.219234   -1.081025   -1.780278
     17          6           0        2.853036   -0.206184    0.330495
     18          9           0        2.264742   -1.087709    1.213941
     19          8           0        4.105216   -0.856580    0.047106
     20          6           0        5.028101   -0.069548   -0.658836
     21          9           0        5.484430    0.916196    0.127854
     22          9           0        4.470435    0.448445   -1.759445
     23          9           0        6.065253   -0.845094   -1.022991
     24          6           0        2.961503    1.121725    1.078756
     25          9           0        3.370021    2.139769    0.297391
     26          9           0        1.785921    1.469429    1.650142
     27          9           0        3.854281    1.020411    2.097469
     28          6           0       -0.157644    1.099105   -0.453865
     29          8           0        0.469747    2.155417   -0.398204
     30          1           0       -1.130021    3.772926   -1.167863
     31          1           0       -2.291495    2.837506   -2.122393
     32          1           0       -2.850261    4.119587   -1.035388
     33          1           0       -3.347134    2.037730   -0.009078
     34          1           0       -2.621930    3.771970    1.536337
     35          1           0       -0.934297    3.259204    1.416846
     36          1           0       -2.129692    2.185109    2.151039
     37          1           0       -3.219035   -2.400326    0.078352
     38          1           0       -0.739316   -3.439699    1.532524
     39          1           0       -2.396015   -4.039459    1.675794
     40          1           0       -1.989881   -2.408789    2.236364
     41          1           0       -0.913048   -4.047189   -1.033932
     42          1           0       -2.611338   -4.482636   -0.882960
     43          1           0       -2.126322   -3.207753   -2.012972
 ---------------------------------------------------------------------

 SCF Done:  E(RCAM-B3LYP) =  -1866.97758923     A.U. after   13 cycles

 Alpha  occ. eigenvalues --  -24.83807 -24.83487 -24.83417 -24.83240 -24.82977
 Alpha  occ. eigenvalues --  -24.82779 -24.82324 -24.82129 -24.81401 -19.32876
 Alpha  occ. eigenvalues --  -19.22773 -19.22682 -19.22546 -14.51949 -14.49234
 Alpha  occ. eigenvalues --  -14.49219 -10.59502 -10.55008 -10.52653 -10.48742
 Alpha  occ. eigenvalues --  -10.44706 -10.44676 -10.43758 -10.31766 -10.31742
 Alpha  occ. eigenvalues --  -10.25330 -10.25310 -10.25307 -10.25296  -1.43319
 Alpha  occ. eigenvalues --   -1.41475  -1.38192  -1.35010  -1.33832  -1.33285
 Alpha  occ. eigenvalues --   -1.32482  -1.31824  -1.30595  -1.21446  -1.20201
 Alpha  occ. eigenvalues --   -1.16418  -1.16189  -1.08379  -1.06041  -1.04610
 Alpha  occ. eigenvalues --   -0.92658  -0.89104  -0.87295  -0.83779  -0.82117
 Alpha  occ. eigenvalues --   -0.79057  -0.77726  -0.77225  -0.77207  -0.75485
 Alpha  occ. eigenvalues --   -0.73597  -0.73161  -0.72604  -0.70994  -0.70420
 Alpha  occ. eigenvalues --   -0.69780  -0.68499  -0.67475  -0.66886  -0.66204
 Alpha  occ. eigenvalues --   -0.64490  -0.63490  -0.60975  -0.59052  -0.57914
 Alpha  occ. eigenvalues --   -0.57092  -0.56933  -0.56737  -0.56293  -0.55821
 Alpha  occ. eigenvalues --   -0.55136  -0.54938  -0.54632  -0.54234  -0.53806
 Alpha  occ. eigenvalues --   -0.53447  -0.53255  -0.52934  -0.52501  -0.52013
 Alpha  occ. eigenvalues --   -0.51417  -0.51175  -0.50709  -0.50511  -0.50264
 Alpha  occ. eigenvalues --   -0.50127  -0.49609  -0.49425  -0.48511  -0.48168
 Alpha  occ. eigenvalues --   -0.47765  -0.47204  -0.47097  -0.45959  -0.45346
 Alpha  occ. eigenvalues --   -0.45087  -0.44553  -0.43462  -0.41872  -0.41756
 Alpha  occ. eigenvalues --   -0.41463  -0.41245  -0.38341  -0.37245  -0.37037
 Alpha  occ. eigenvalues --   -0.35680  -0.34901  -0.34571
 Alpha virt. eigenvalues --    0.01896   0.02395   0.06226   0.07214   0.11737
 Alpha virt. eigenvalues --    0.13487   0.14840   0.15383   0.16007   0.17883
 Alpha virt. eigenvalues --    0.19049   0.19349   0.19696   0.20189   0.20423

 Mulliken charges:
               1
     1  C   -0.328058
     2  C    0.051038
     3  C   -0.320341
     4  N   -0.573751
     5  C    0.818360
     6  O   -0.522319
     7  N   -0.577539
     8  C    0.050579
     9  C   -0.320089
    10  C   -0.327822
    11  C    0.840119
    12  O   -0.509483
    13  N   -0.624368
    14  C    0.762413
    15  F   -0.251672
    16  F   -0.276120
    17  C    0.434528
    18  F   -0.271462
    19  O   -0.497354
    20  C    0.975047
    21  F   -0.240259
    22  F   -0.233565
    23  F   -0.238772
    24  C    0.820669
    25  F   -0.245144
    26  F   -0.244850
    27  F   -0.262075
    28  C    0.828070
    29  O   -0.509954
    30  H    0.138329
    31  H    0.113363
    32  H    0.120598
    33  H    0.155451
    34  H    0.121449
    35  H    0.132481
    36  H    0.115357
    37  H    0.155406
    38  H    0.133047
    39  H    0.121477
    40  H    0.115152
    41  H    0.138304
    42  H    0.120536
    43  H    0.113224
 Sum of Mulliken charges =   0.00000

 Dipole moment (field-independent basis, Debye):
    X=             -3.0566    Y=              0.1889    Z=             -0.5002  Tot=              3.1030
 Quadrupole moment (field-independent basis, Debye-Ang):
   XX=           -166.2655   YY=           -159.1557   ZZ=           -159.8260
   XY=              1.0447   XZ=              3.1691   YZ=             -0.1884

 Normal termination of Gaussian 09 at Sun Mar  3 17:32:13 2024.
