 Gaussian 09, Revision D.01,
 Gaussian 09:  ES64L-G09RevD.01 24-Apr-2013

 ----------------------------------------------------------------------
 #p CAM-B3LYP/6-31G(d,p) SCRF=(PCM,Solvent=Generic,Read) NoSymm out=wfn
 ----------------------------------------------------------------------

 --------------------
 Title A1639138552_p1
 --------------------
 Symbolic Z-matrix:
 Charge =  1 Multiplicity = 2

                          Input orientation:
 ---------------------------------------------------------------------
 Center     Atomic      Atomic             Coordinates (Angstroms)
 Number     Number       Type             X           Y           Z
 ---------------------------------------------------------------------
      1          6           0       -2.120506    3.310289   -1.149375
      2          6           0       -2.279526    2.290556   -0.016434
      3          6           0       -1.969887    2.912480    1.347852
      4          7           0       -1.517524    1.040994   -0.240160
      5          6           0       -2.160444   -0.149562    0.049168
      6          8           0       -3.294654   -0.172806    0.531761
      7          7           0       -1.448542   -1.311054   -0.193223
      8          6           0       -2.138990   -2.593238    0.074296
      9          6           0       -1.792394   -3.152295    1.456669
     10          6           0       -1.927225   -3.638812   -1.026021
     11          6           0       -0.085577   -1.300899   -0.409163
     12          8           0        0.596021   -2.321207   -0.324372
     13          7           0        0.485462   -0.084893   -0.685953
     14          6           0        1.922780   -0.057719   -0.911178
     15          9           0        2.256518    1.045626   -1.636072
     16          9           0        2.219234   -1.081025   -1.780278
     17          6           0        2.853036   -0.206184    0.330495
     18          9           0        2.264742   -1.087709    1.213941
     19          8           0        4.105216   -0.856580    0.047106
     20          6           0        5.028101   -0.069548   -0.658836
     21          9           0        5.484430    0.916196    0.127854
     22          9           0        4.470435    0.448445   -1.759445
     23          9           0        6.065253   -0.845094   -1.022991
     24          6           0        2.961503    1.121725    1.078756
     25          9           0        3.370021    2.139769    0.297391
     26          9           0        1.785921    1.469429    1.650142
     27          9           0        3.854281    1.020411    2.097469
     28          6           0       -0.157644    1.099105   -0.453865
     29          8           0        0.469747    2.155417   -0.398204
     30          1           0       -1.130021    3.772926   -1.167863
     31          1           0       -2.291495    2.837506   -2.122393
     32          1           0       -2.850261    4.119587   -1.035388
     33          1           0       -3.347134    2.037730   -0.009078
     34          1           0       -2.621930    3.771970    1.536337
     35          1           0       -0.934297    3.259204    1.416846
     36          1           0       -2.129692    2.185109    2.151039
     37          1           0       -3.219035   -2.400326    0.078352
     38          1           0       -0.739316   -3.439699    1.532524
     39          1           0       -2.396015   -4.039459    1.675794
     40          1           0       -1.989881   -2.408789    2.236364
     41          1           0       -0.913048   -4.047189   -1.033932
     42          1           0       -2.611338   -4.482636   -0.882960
     43          1           0       -2.126322   -3.207753   -2.012972
 ---------------------------------------------------------------------

 SCF Done:  E(UCAM-B3LYP) =  -1866.66197204     A.U. after   36 cycles

 Alpha  occ. eigenvalues --  -24.86599 -24.86467 -24.86250 -24.85972 -24.85773
 Alpha  occ. eigenvalues --  -24.85664 -24.85424 -24.85240 -24.84839 -19.35582
 Alpha  occ. eigenvalues --  -19.32880 -19.32580 -19.30593 -14.62083 -14.61743
 Alpha  occ. eigenvalues --  -14.58930 -10.61630 -10.57970 -10.57253 -10.52971
 Alpha  occ. eigenvalues --  -10.52823 -10.52194 -10.52178 -10.38695 -10.38503
 Alpha  occ. eigenvalues --  -10.30949 -10.30778 -10.30135 -10.30001  -1.45502
 Alpha  occ. eigenvalues --   -1.44295  -1.42393  -1.38437  -1.36024  -1.35718
 Alpha  occ. eigenvalues --   -1.34935  -1.34857  -1.34384  -1.30474  -1.25761
 Alpha  occ. eigenvalues --   -1.24608  -1.22882  -1.17131  -1.15205  -1.14503
 Alpha  occ. eigenvalues --   -0.97058  -0.95380  -0.94271  -0.89820  -0.86820
 Alpha  occ. eigenvalues --   -0.84949  -0.84475  -0.82612  -0.82456  -0.81517
 Alpha  occ. eigenvalues --   -0.80584  -0.77980  -0.75943  -0.74702  -0.73698
 Alpha  occ. eigenvalues --   -0.73482  -0.72210  -0.71834  -0.71140  -0.70558
 Alpha  occ. eigenvalues --   -0.69705  -0.68110  -0.67066  -0.64784  -0.63519
 Alpha  occ. eigenvalues --   -0.63361  -0.63001  -0.61800  -0.61457  -0.60889
 Alpha  occ. eigenvalues --   -0.59847  -0.59629  -0.59391  -0.59212  -0.58139
 Alpha  occ. eigenvalues --   -0.57919  -0.57453  -0.57079  -0.56692  -0.56423
 Alpha  occ. eigenvalues --   -0.56259  -0.55475  -0.54620  -0.54464  -0.54314
 Alpha  occ. eigenvalues --   -0.53600  -0.52986  -0.52949  -0.52650  -0.51967
 Alpha  occ. eigenvalues --   -0.51564  -0.51446  -0.51104  -0.50812  -0.50472
 Alpha  occ. eigenvalues --   -0.50155  -0.49449  -0.48431  -0.48246  -0.47592
 Alpha  occ. eigenvalues --   -0.47272  -0.46978  -0.45275  -0.45049  -0.44614
 Alpha  occ. eigenvalues --   -0.43940  -0.43522  -0.43262
 Alpha virt. eigenvalues --   -0.06372  -0.05594   0.01634   0.02920   0.03899
 Alpha virt. eigenvalues --    0.08389   0.09201   0.10491   0.11606   0.12653
 Alpha virt. eigenvalues --    0.14157   0.14563   0.15467   0.15911   0.16469

  Beta  occ. eigenvalues --  -24.86591 -24.86459 -24.86247 -24.85972 -24.85773
  Beta  occ. eigenvalues --  -24.85658 -24.85424 -24.85240 -24.84839 -19.35583
  Beta  occ. eigenvalues --  -19.32376 -19.32121 -19.30650 -14.61284 -14.60978
  Beta  occ. eigenvalues --  -14.58980 -10.61630 -10.57970 -10.57253 -10.53136
  Beta  occ. eigenvalues --  -10.52978 -10.52267 -10.52196 -10.38670 -10.38479
  Beta  occ. eigenvalues --  -10.30842 -10.30676 -10.30102 -10.29969  -1.45501
  Beta  occ. eigenvalues --   -1.44291  -1.42382  -1.38431  -1.36021  -1.35713
  Beta  occ. eigenvalues --   -1.34934  -1.34840  -1.34380  -1.29847  -1.24892
  Beta  occ. eigenvalues --   -1.24248  -1.22880  -1.16406  -1.14051  -1.13474
  Beta  occ. eigenvalues --   -0.96937  -0.95197  -0.93866  -0.89747  -0.86530
  Beta  occ. eigenvalues --   -0.84843  -0.84303  -0.82299  -0.82107  -0.81220
  Beta  occ. eigenvalues --   -0.80430  -0.77890  -0.75927  -0.74665  -0.73644
  Beta  occ. eigenvalues --   -0.73126  -0.72193  -0.71737  -0.71129  -0.70471
  Beta  occ. eigenvalues --   -0.68732  -0.67596  -0.66992  -0.64504  -0.63041
  Beta  occ. eigenvalues --   -0.62971  -0.61474  -0.61271  -0.60601  -0.60438
  Beta  occ. eigenvalues --   -0.59781  -0.59459  -0.59151  -0.58918  -0.58079
  Beta  occ. eigenvalues --   -0.57692  -0.57421  -0.56991  -0.56498  -0.56322
  Beta  occ. eigenvalues --   -0.56001  -0.55194  -0.54569  -0.54271  -0.53725
  Beta  occ. eigenvalues --   -0.53449  -0.52914  -0.52575  -0.52563  -0.51897
  Beta  occ. eigenvalues --   -0.51541  -0.51192  -0.51020  -0.50583  -0.50355
  Beta  occ. eigenvalues --   -0.49962  -0.49240  -0.47697  -0.47584  -0.46890
  Beta  occ. eigenvalues --   -0.46395  -0.46355  -0.44479  -0.43696  -0.43443
  Beta  occ. eigenvalues --   -0.42424  -0.40583
  Beta virt. eigenvalues --   -0.28472  -0.05595  -0.04759   0.02057   0.02939
  Beta virt. eigenvalues --    0.04681   0.08566   0.09584   0.10605   0.11677
  Beta virt. eigenvalues --    0.12696   0.14327   0.14614   0.15557   0.16069

 Mulliken charges and spin densities:
               1          2
     1  C   -0.337721   0.015893
     2  C   -0.003381   0.005158
     3  C   -0.321301   0.057961
     4  N   -0.490602   0.365637
     5  C    0.852693  -0.056181
     6  O   -0.449766  -0.019688
     7  N   -0.498390   0.350741
     8  C   -0.002075   0.004649
     9  C   -0.320993   0.055238
    10  C   -0.337185   0.015413
    11  C    0.883376  -0.088636
    12  O   -0.403139   0.180644
    13  N   -0.630470  -0.013158
    14  C    0.762447  -0.000960
    15  F   -0.239719   0.001794
    16  F   -0.262545   0.001514
    17  C    0.440426  -0.000713
    18  F   -0.269832   0.000666
    19  O   -0.488637  -0.000137
    20  C    0.979813  -0.000002
    21  F   -0.236373  -0.000001
    22  F   -0.233214   0.000019
    23  F   -0.233343   0.000001
    24  C    0.823862  -0.000256
    25  F   -0.239725  -0.000022
    26  F   -0.248430   0.001531
    27  F   -0.252707   0.000102
    28  C    0.872748  -0.094026
    29  O   -0.400934   0.197399
    30  H    0.161266   0.000394
    31  H    0.143350   0.002825
    32  H    0.161334   0.002500
    33  H    0.207083   0.005438
    34  H    0.169082   0.001428
    35  H    0.159181  -0.000613
    36  H    0.145191  -0.001886
    37  H    0.205113   0.004972
    38  H    0.159057  -0.000624
    39  H    0.167730   0.001423
    40  H    0.143772  -0.001778
    41  H    0.160805   0.000322
    42  H    0.160326   0.002406
    43  H    0.141828   0.002616
 Sum of Mulliken charges =   1.00000   1.00000

 Dipole moment (field-independent basis, Debye):
    X=             -8.1449    Y=             -0.2071    Z=             -0.8405  Tot=              8.1908
 Quadrupole moment (field-independent basis, Debye-Ang):
   XX=           -141.7613   YY=           -128.2687   ZZ=           -151.6074
   XY=              1.1710   XZ=              1.6906   YZ=             -0.4697

 Normal termination of Gaussian 09 at Sun Mar  3 17:33:39 2024.
