 Gaussian 09, Revision D.01,
 Gaussian 09:  ES64L-G09RevD.01 24-Apr-2013

 ----------------------------------------------------------------------
 #p CAM-B3LYP/6-31G(d,p) SCRF=(PCM,Solvent=Generic,Read) NoSymm out=wfn
 ----------------------------------------------------------------------

 --------------
 Title mXD2_neu
 --------------
 Symbolic Z-matrix:
 Charge =  0 Multiplicity = 1

                          Input orientation:
 ---------------------------------------------------------------------
 Center     Atomic      Atomic             Coordinates (Angstroms)
 Number     Number       Type             X           Y           Z
 ---------------------------------------------------------------------
      1          9           0       -4.542124   -0.514505    2.502710
      2          6           0       -3.269217   -0.948767    2.444179
      3          9           0       -3.236115   -2.160288    3.033663
      4          6           0       -2.706865   -0.985742    1.038970
      5          9           0       -3.208022    0.070620    0.336007
      6          9           0       -3.015041   -2.084655    0.333108
      7          6           0       -1.238295   -0.768278    1.252352
      8          9           0       -0.741499   -0.103372    0.160012
      9          6           0       -0.407988   -2.032765    1.393152
     10          9           0        0.906347   -1.668639    1.520681
     11          6           0       -0.803493   -2.981733    2.522398
     12          8           0       -1.618382   -3.982639    2.117946
     13          8           0       -0.503573   -2.891553    3.701296
     14          9           0       -0.455499   -2.686984    0.186078
     15          6           0       -1.233600    0.139780    2.476373
     16          9           0       -0.218680   -0.193552    3.308945
     17          6           0       -1.151048    1.645268    2.134159
     18          9           0       -2.224195    1.992224    1.355302
     19          6           0        0.175126    2.013281    1.451353
     20          7           0        0.039197    2.913015    0.402442
     21          6           0        1.138820    3.179832   -0.501466
     22          6           0        1.180473    2.146342   -1.596538
     23          6           0        1.903727    0.955607   -1.412035
     24          6           0        1.888883   -0.062331   -2.375198
     25          6           0        2.627911   -1.349365   -2.130354
     26          7           0        4.061320   -1.187122   -2.327681
     27          6           0        1.161850    0.136154   -3.553867
     28          6           0        0.436535    1.314103   -3.750370
     29          6           0        0.437533    2.310204   -2.773113
     30          8           0        1.263419    1.579682    1.822775
     31          9           0       -1.308834    2.372257    3.283243
     32          8           0       -2.444779   -0.104167    3.231486
     33          1           0       -1.803352   -4.509980    2.925787
     34          1           0       -0.897663    3.085190    0.052687
     35          1           0        0.981909    4.181726   -0.922169
     36          1           0        2.085107    3.202621    0.051430
     37          1           0        2.471866    0.803765   -0.493529
     38          1           0        2.254995   -2.131652   -2.801432
     39          1           0        2.428377   -1.695529   -1.110207
     40          1           0        4.228493   -0.919287   -3.296577
     41          1           0        4.509784   -2.092756   -2.198969
     42          1           0        1.138079   -0.635550   -4.322723
     43          1           0       -0.142176    1.441402   -4.661633
     44          1           0       -0.149313    3.208136   -2.935124
 ---------------------------------------------------------------------

 SCF Done:  E(RCAM-B3LYP) =  -2025.03381606     A.U. after   13 cycles

 Alpha  occ. eigenvalues --  -24.83730 -24.83412 -24.83155 -24.83119 -24.82918
 Alpha  occ. eigenvalues --  -24.82359 -24.81965 -24.81867 -24.81602 -24.81210
 Alpha  occ. eigenvalues --  -19.31769 -19.29997 -19.25457 -19.21941 -14.45224
 Alpha  occ. eigenvalues --  -14.38047 -10.53051 -10.49355 -10.49183 -10.47467
 Alpha  occ. eigenvalues --  -10.47027 -10.44464 -10.42972 -10.39917 -10.30559
 Alpha  occ. eigenvalues --  -10.27875 -10.27204 -10.26660 -10.26526 -10.26456
 Alpha  occ. eigenvalues --  -10.26268 -10.25919  -1.40871  -1.38729  -1.37603
 Alpha  occ. eigenvalues --   -1.37190  -1.34835  -1.34420  -1.33110  -1.32015
 Alpha  occ. eigenvalues --   -1.30465  -1.30338  -1.22104  -1.20098  -1.13981
 Alpha  occ. eigenvalues --   -1.12341  -1.02131  -0.97880  -0.96649  -0.93302
 Alpha  occ. eigenvalues --   -0.90403  -0.88031  -0.85766  -0.83248  -0.82559
 Alpha  occ. eigenvalues --   -0.79019  -0.77476  -0.76038  -0.74245  -0.73640
 Alpha  occ. eigenvalues --   -0.71167  -0.70530  -0.69787  -0.68544  -0.68024
 Alpha  occ. eigenvalues --   -0.67437  -0.67239  -0.66298  -0.65973  -0.65030
 Alpha  occ. eigenvalues --   -0.64628  -0.64276  -0.63695  -0.62755  -0.61786
 Alpha  occ. eigenvalues --   -0.58574  -0.58171  -0.57687  -0.56792  -0.56433
 Alpha  occ. eigenvalues --   -0.55598  -0.55463  -0.55263  -0.54950  -0.54745
 Alpha  occ. eigenvalues --   -0.54393  -0.53887  -0.53630  -0.53169  -0.52751
 Alpha  occ. eigenvalues --   -0.52658  -0.52483  -0.52348  -0.51922  -0.51589
 Alpha  occ. eigenvalues --   -0.50902  -0.50304  -0.50173  -0.49557  -0.49379
 Alpha  occ. eigenvalues --   -0.49152  -0.48755  -0.48505  -0.48065  -0.47382
 Alpha  occ. eigenvalues --   -0.46964  -0.46024  -0.45693  -0.45489  -0.44002
 Alpha  occ. eigenvalues --   -0.43752  -0.42436  -0.42167  -0.41049  -0.40995
 Alpha  occ. eigenvalues --   -0.39300  -0.37740  -0.34881  -0.33077  -0.30393
 Alpha  occ. eigenvalues --   -0.29824  -0.29153
 Alpha virt. eigenvalues --   -0.00764   0.02124   0.04083   0.04400   0.04986
 Alpha virt. eigenvalues --    0.07705   0.09181   0.11862   0.13465   0.13960
 Alpha virt. eigenvalues --    0.14096   0.14202   0.16164   0.18086   0.18389

 Mulliken charges:
               1
     1  F   -0.243464
     2  C    0.744911
     3  F   -0.241681
     4  C    0.540921
     5  F   -0.264604
     6  F   -0.245024
     7  C    0.167768
     8  F   -0.286560
     9  C    0.640336
    10  F   -0.265078
    11  C    0.502729
    12  O   -0.473870
    13  O   -0.433352
    14  F   -0.276053
    15  C    0.466326
    16  F   -0.252852
    17  C    0.583168
    18  F   -0.283485
    19  C    0.545059
    20  N   -0.524072
    21  C   -0.133207
    22  C    0.098942
    23  C   -0.136703
    24  C    0.100885
    25  C   -0.112643
    26  N   -0.606112
    27  C   -0.131534
    28  C   -0.094686
    29  C   -0.130500
    30  O   -0.502717
    31  F   -0.270276
    32  O   -0.493662
    33  H    0.360230
    34  H    0.287605
    35  H    0.127187
    36  H    0.156509
    37  H    0.119321
    38  H    0.083119
    39  H    0.114971
    40  H    0.242088
    41  H    0.244353
    42  H    0.090914
    43  H    0.097048
    44  H    0.087743
 Sum of Mulliken charges =   0.00000

 Dipole moment (field-independent basis, Debye):
    X=             -2.2457    Y=             -1.2646    Z=             -4.1083  Tot=              4.8498
 Quadrupole moment (field-independent basis, Debye-Ang):
   XX=           -178.5364   YY=           -150.6530   ZZ=           -178.5913
   XY=             -2.5940   XZ=             -7.6062   YZ=             -7.3444

 Normal termination of Gaussian 09 at Mon Feb  3 22:01:18 2025.
