 Gaussian 09, Revision D.01,
 Gaussian 09:  ES64L-G09RevD.01 24-Apr-2013

 ----------------------------------------------------------------------
 #p CAM-B3LYP/6-31G(d,p) SCRF=(PCM,Solvent=Generic,Read) NoSymm out=wfn
 ----------------------------------------------------------------------

 -------------------
 Title A230421842_p1
 -------------------
 Symbolic Z-matrix:
 Charge =  1 Multiplicity = 2

                          Input orientation:
 ---------------------------------------------------------------------
 Center     Atomic      Atomic             Coordinates (Angstroms)
 Number     Number       Type             X           Y           Z
 ---------------------------------------------------------------------
      1          6           0       -2.884670   -1.916161    2.480584
      2          6           0       -2.173372   -0.572818    2.562225
      3          7           0       -1.556433   -0.211691    1.286449
      4          6           0       -2.303191    0.518344    0.385415
      5          8           0       -3.488567    0.788498    0.582754
      6          7           0       -1.635172    0.929244   -0.749659
      7          6           0       -2.343959    1.796041   -1.690514
      8          6           0       -3.108481    0.991002   -2.732234
      9          6           0       -0.375868    0.481679   -1.090422
     10          8           0        0.191600    0.878633   -2.106931
     11          7           0        0.207979   -0.419508   -0.236380
     12          6           0        1.525523   -0.922070   -0.588481
     13          9           0        1.462678   -1.328950   -1.901543
     14          9           0        1.778242   -2.098397    0.062610
     15          6           0        2.760129    0.009389   -0.436554
     16          9           0        2.558596    1.161318   -1.140557
     17          8           0        3.871943   -0.652208   -1.067754
     18          6           0        5.094593    0.008731   -0.887264
     19          9           0        4.961834    1.338256   -1.009492
     20          9           0        5.961783   -0.429693   -1.818693
     21          9           0        5.581767   -0.296786    0.327234
     22          6           0        2.929409    0.352890    1.044398
     23          9           0        3.954044    1.216897    1.244326
     24          9           0        3.181991   -0.732591    1.801369
     25          9           0        1.832551    0.973403    1.540181
     26          6           0       -0.285103   -0.670988    1.017443
     27          8           0        0.380245   -1.256027    1.871227
     28          1           0       -3.339655   -2.164343    3.444346
     29          1           0       -2.186366   -2.716715    2.215488
     30          1           0       -3.674966   -1.898625    1.723060
     31          1           0       -2.889489    0.202259    2.858119
     32          1           0       -1.406569   -0.613543    3.343991
     33          1           0       -1.627794    2.455886   -2.193146
     34          1           0       -3.041343    2.440161   -1.142805
     35          1           0       -2.432387    0.358288   -3.316434
     36          1           0       -3.850786    0.338954   -2.260561
     37          1           0       -3.630735    1.661242   -3.421794
 ---------------------------------------------------------------------

 SCF Done:  E(UCAM-B3LYP) =  -1788.08630049     A.U. after   50 cycles

 Alpha  occ. eigenvalues --  -24.87402 -24.86684 -24.86137 -24.85917 -24.85710
 Alpha  occ. eigenvalues --  -24.85397 -24.85387 -24.85039 -24.84881 -19.35259
 Alpha  occ. eigenvalues --  -19.33330 -19.32779 -19.31258 -14.63001 -14.62186
 Alpha  occ. eigenvalues --  -14.59386 -10.61347 -10.58489 -10.57507 -10.53421
 Alpha  occ. eigenvalues --  -10.53093 -10.52626 -10.52232 -10.38329 -10.37972
 Alpha  occ. eigenvalues --  -10.31423 -10.31100  -1.45462  -1.44330  -1.42335
 Alpha  occ. eigenvalues --   -1.38638  -1.36322  -1.35272  -1.35183  -1.34736
 Alpha  occ. eigenvalues --   -1.34428  -1.30927  -1.26073  -1.25044  -1.22693
 Alpha  occ. eigenvalues --   -1.17621  -1.15777  -1.15065  -0.97369  -0.94835
 Alpha  occ. eigenvalues --   -0.93098  -0.90163  -0.86545  -0.85750  -0.84264
 Alpha  occ. eigenvalues --   -0.82191  -0.80668  -0.78740  -0.77274  -0.76028
 Alpha  occ. eigenvalues --   -0.74808  -0.73441  -0.72172  -0.71738  -0.71096
 Alpha  occ. eigenvalues --   -0.70791  -0.69726  -0.68986  -0.67746  -0.66375
 Alpha  occ. eigenvalues --   -0.65337  -0.63343  -0.62816  -0.62541  -0.61544
 Alpha  occ. eigenvalues --   -0.61166  -0.60836  -0.59690  -0.59367  -0.58812
 Alpha  occ. eigenvalues --   -0.58622  -0.57743  -0.57560  -0.57462  -0.57328
 Alpha  occ. eigenvalues --   -0.56759  -0.56384  -0.55330  -0.54810  -0.54468
 Alpha  occ. eigenvalues --   -0.54131  -0.53409  -0.53187  -0.52857  -0.52626
 Alpha  occ. eigenvalues --   -0.52365  -0.51537  -0.51227  -0.50580  -0.50310
 Alpha  occ. eigenvalues --   -0.49167  -0.47895  -0.47548  -0.47423  -0.47106
 Alpha  occ. eigenvalues --   -0.47024  -0.45930  -0.45409  -0.45028  -0.43546
 Alpha virt. eigenvalues --   -0.06550  -0.06151   0.02324   0.02827   0.04902
 Alpha virt. eigenvalues --    0.08462   0.10653   0.10744   0.11239   0.12198
 Alpha virt. eigenvalues --    0.13638   0.14763   0.15335   0.15950   0.16737

  Beta  occ. eigenvalues --  -24.87399 -24.86676 -24.86137 -24.85915 -24.85706
  Beta  occ. eigenvalues --  -24.85397 -24.85387 -24.85039 -24.84881 -19.35259
  Beta  occ. eigenvalues --  -19.32809 -19.32337 -19.31274 -14.62142 -14.61418
  Beta  occ. eigenvalues --  -14.59437 -10.61348 -10.58489 -10.57507 -10.53596
  Beta  occ. eigenvalues --  -10.53247 -10.52722 -10.52234 -10.38314 -10.37958
  Beta  occ. eigenvalues --  -10.31318 -10.31006  -1.45460  -1.44329  -1.42326
  Beta  occ. eigenvalues --   -1.38633  -1.36317  -1.35271  -1.35182  -1.34723
  Beta  occ. eigenvalues --   -1.34427  -1.30252  -1.25190  -1.24660  -1.22692
  Beta  occ. eigenvalues --   -1.16832  -1.14628  -1.13986  -0.97320  -0.94547
  Beta  occ. eigenvalues --   -0.92690  -0.90053  -0.86204  -0.85646  -0.84011
  Beta  occ. eigenvalues --   -0.81877  -0.80481  -0.78635  -0.76839  -0.75964
  Beta  occ. eigenvalues --   -0.74757  -0.73385  -0.72106  -0.71590  -0.71086
  Beta  occ. eigenvalues --   -0.70268  -0.69402  -0.68259  -0.67694  -0.65945
  Beta  occ. eigenvalues --   -0.64223  -0.62955  -0.62633  -0.61269  -0.61062
  Beta  occ. eigenvalues --   -0.60875  -0.59846  -0.59554  -0.59238  -0.58718
  Beta  occ. eigenvalues --   -0.58466  -0.57684  -0.57463  -0.57301  -0.57146
  Beta  occ. eigenvalues --   -0.56489  -0.56320  -0.55275  -0.54771  -0.54245
  Beta  occ. eigenvalues --   -0.53750  -0.53289  -0.52714  -0.52555  -0.52189
  Beta  occ. eigenvalues --   -0.51927  -0.51366  -0.51169  -0.50255  -0.50015
  Beta  occ. eigenvalues --   -0.48858  -0.47569  -0.47306  -0.47036  -0.46334
  Beta  occ. eigenvalues --   -0.45954  -0.44365  -0.42867  -0.41299
  Beta virt. eigenvalues --   -0.28676  -0.06193  -0.04783   0.02384   0.03372
  Beta virt. eigenvalues --    0.05656   0.08696   0.10803   0.11027   0.11377
  Beta virt. eigenvalues --    0.12352   0.13720   0.14849   0.15492   0.16060

 Mulliken charges and spin densities:
               1          2
     1  C   -0.335829   0.052360
     2  C   -0.108282   0.003088
     3  N   -0.481561   0.391277
     4  C    0.866531  -0.061897
     5  O   -0.443332  -0.003567
     6  N   -0.492546   0.350329
     7  C   -0.104354   0.003227
     8  C   -0.335935   0.047283
     9  C    0.882989  -0.088058
    10  O   -0.403735   0.174019
    11  N   -0.639478  -0.013530
    12  C    0.749212  -0.000882
    13  F   -0.255792   0.000953
    14  F   -0.238274   0.001550
    15  C    0.442033  -0.000735
    16  F   -0.251606   0.000489
    17  O   -0.507359   0.000014
    18  C    1.001271  -0.000042
    19  F   -0.241461   0.000008
    20  F   -0.234770  -0.000010
    21  F   -0.242941   0.000000
    22  C    0.817857  -0.000086
    23  F   -0.246863   0.000023
    24  F   -0.229973   0.000065
    25  F   -0.254419   0.000725
    26  C    0.880907  -0.100214
    27  O   -0.400624   0.204838
    28  H    0.177714   0.004454
    29  H    0.156623  -0.000881
    30  H    0.157214  -0.002085
    31  H    0.209601   0.011021
    32  H    0.210861   0.008174
    33  H    0.206654   0.006682
    34  H    0.205340   0.010081
    35  H    0.155130  -0.000701
    36  H    0.154809  -0.001892
    37  H    0.174386   0.003916
 Sum of Mulliken charges =   1.00000   1.00000

 Dipole moment (field-independent basis, Debye):
    X=             -9.1156    Y=              1.4364    Z=              1.6786  Tot=              9.3795
 Quadrupole moment (field-independent basis, Debye-Ang):
   XX=           -124.8970   YY=           -135.7288   ZZ=           -126.4207
   XY=              0.2163   XZ=             -0.6630   YZ=             -8.4618

 Normal termination of Gaussian 09 at Sun Mar  3 18:12:22 2024.
