 Gaussian 09, Revision D.01,
 Gaussian 09:  ES64L-G09RevD.01 24-Apr-2013

 ----------------------------------------------------------------------
 #p CAM-B3LYP/6-31G(d,p) SCRF=(PCM,Solvent=Generic,Read) NoSymm out=wfn
 ----------------------------------------------------------------------

 ------------------
 Title A230421842_0
 ------------------
 Symbolic Z-matrix:
 Charge =  0 Multiplicity = 1

                          Input orientation:
 ---------------------------------------------------------------------
 Center     Atomic      Atomic             Coordinates (Angstroms)
 Number     Number       Type             X           Y           Z
 ---------------------------------------------------------------------
      1          6           0       -2.884670   -1.916161    2.480584
      2          6           0       -2.173372   -0.572818    2.562225
      3          7           0       -1.556433   -0.211691    1.286449
      4          6           0       -2.303191    0.518344    0.385415
      5          8           0       -3.488567    0.788498    0.582754
      6          7           0       -1.635172    0.929244   -0.749659
      7          6           0       -2.343959    1.796041   -1.690514
      8          6           0       -3.108481    0.991002   -2.732234
      9          6           0       -0.375868    0.481679   -1.090422
     10          8           0        0.191600    0.878633   -2.106931
     11          7           0        0.207979   -0.419508   -0.236380
     12          6           0        1.525523   -0.922070   -0.588481
     13          9           0        1.462678   -1.328950   -1.901543
     14          9           0        1.778242   -2.098397    0.062610
     15          6           0        2.760129    0.009389   -0.436554
     16          9           0        2.558596    1.161318   -1.140557
     17          8           0        3.871943   -0.652208   -1.067754
     18          6           0        5.094593    0.008731   -0.887264
     19          9           0        4.961834    1.338256   -1.009492
     20          9           0        5.961783   -0.429693   -1.818693
     21          9           0        5.581767   -0.296786    0.327234
     22          6           0        2.929409    0.352890    1.044398
     23          9           0        3.954044    1.216897    1.244326
     24          9           0        3.181991   -0.732591    1.801369
     25          9           0        1.832551    0.973403    1.540181
     26          6           0       -0.285103   -0.670988    1.017443
     27          8           0        0.380245   -1.256027    1.871227
     28          1           0       -3.339655   -2.164343    3.444346
     29          1           0       -2.186366   -2.716715    2.215488
     30          1           0       -3.674966   -1.898625    1.723060
     31          1           0       -2.889489    0.202259    2.858119
     32          1           0       -1.406569   -0.613543    3.343991
     33          1           0       -1.627794    2.455886   -2.193146
     34          1           0       -3.041343    2.440161   -1.142805
     35          1           0       -2.432387    0.358288   -3.316434
     36          1           0       -3.850786    0.338954   -2.260561
     37          1           0       -3.630735    1.661242   -3.421794
 ---------------------------------------------------------------------

 SCF Done:  E(RCAM-B3LYP) =  -1788.40389246     A.U. after   13 cycles

 Alpha  occ. eigenvalues --  -24.83963 -24.83482 -24.83308 -24.83234 -24.83052
 Alpha  occ. eigenvalues --  -24.82838 -24.82597 -24.82339 -24.81467 -19.32671
 Alpha  occ. eigenvalues --  -19.22986 -19.22813 -19.22676 -14.52281 -14.49406
 Alpha  occ. eigenvalues --  -14.49404 -10.59335 -10.55491 -10.52885 -10.48815
 Alpha  occ. eigenvalues --  -10.44897 -10.44848 -10.43811 -10.31141 -10.31128
 Alpha  occ. eigenvalues --  -10.25766 -10.25742  -1.43059  -1.41831  -1.38096
 Alpha  occ. eigenvalues --   -1.35389  -1.33286  -1.33264  -1.32886  -1.32223
 Alpha  occ. eigenvalues --   -1.30518  -1.21577  -1.20110  -1.16532  -1.16300
 Alpha  occ. eigenvalues --   -1.08608  -1.06367  -1.04832  -0.93298  -0.87653
 Alpha  occ. eigenvalues --   -0.85499  -0.83604  -0.82250  -0.78995  -0.77796
 Alpha  occ. eigenvalues --   -0.76193  -0.74132  -0.73080  -0.72409  -0.71367
 Alpha  occ. eigenvalues --   -0.70365  -0.70158  -0.69429  -0.68653  -0.67346
 Alpha  occ. eigenvalues --   -0.66941  -0.65781  -0.63695  -0.61351  -0.60043
 Alpha  occ. eigenvalues --   -0.59097  -0.57424  -0.56962  -0.56735  -0.55898
 Alpha  occ. eigenvalues --   -0.55714  -0.55568  -0.54789  -0.54224  -0.54038
 Alpha  occ. eigenvalues --   -0.53959  -0.53814  -0.53008  -0.52840  -0.52351
 Alpha  occ. eigenvalues --   -0.52183  -0.51809  -0.51504  -0.50849  -0.50682
 Alpha  occ. eigenvalues --   -0.50470  -0.50304  -0.49906  -0.49242  -0.48712
 Alpha  occ. eigenvalues --   -0.48354  -0.46324  -0.46194  -0.45638  -0.44916
 Alpha  occ. eigenvalues --   -0.44890  -0.44232  -0.42132  -0.41972  -0.38851
 Alpha  occ. eigenvalues --   -0.38628  -0.37923  -0.35974  -0.35161  -0.34647
 Alpha virt. eigenvalues --    0.01661   0.02484   0.06603   0.07647   0.12151
 Alpha virt. eigenvalues --    0.14684   0.15477   0.16201   0.16699   0.17511
 Alpha virt. eigenvalues --    0.19068   0.19591   0.19987   0.20149   0.20480

 Mulliken charges:
               1
     1  C   -0.326750
     2  C   -0.064361
     3  N   -0.567971
     4  C    0.827442
     5  O   -0.524839
     6  N   -0.568488
     7  C   -0.063427
     8  C   -0.327454
     9  C    0.835677
    10  O   -0.511840
    11  N   -0.633393
    12  C    0.748019
    13  F   -0.269546
    14  F   -0.250266
    15  C    0.434579
    16  F   -0.254791
    17  O   -0.513846
    18  C    0.996285
    19  F   -0.243591
    20  F   -0.239750
    21  F   -0.246243
    22  C    0.816067
    23  F   -0.255758
    24  F   -0.234907
    25  F   -0.250290
    26  C    0.834534
    27  O   -0.518322
    28  H    0.127096
    29  H    0.126221
    30  H    0.126961
    31  H    0.152066
    32  H    0.154520
    33  H    0.153743
    34  H    0.151740
    35  H    0.126825
    36  H    0.127116
    37  H    0.126942
 Sum of Mulliken charges =   0.00000

 Dipole moment (field-independent basis, Debye):
    X=             -2.8644    Y=              0.9673    Z=              0.7514  Tot=              3.1153
 Quadrupole moment (field-independent basis, Debye-Ang):
   XX=           -152.8813   YY=           -146.6698   ZZ=           -148.2009
   XY=              3.0127   XZ=              1.6912   YZ=             -0.3257

 Normal termination of Gaussian 09 at Sun Mar  3 18:10:32 2024.
