 Gaussian 09, Revision D.01,
 Gaussian 09:  ES64L-G09RevD.01 24-Apr-2013

 ----------------------------------------------------------------------
 #p CAM-B3LYP/6-31G(d,p) SCRF=(PCM,Solvent=Generic,Read) NoSymm out=wfn
 ----------------------------------------------------------------------

 ------------------
 Title A892693591_0
 ------------------
 Symbolic Z-matrix:
 Charge =  0 Multiplicity = 1

                          Input orientation:
 ---------------------------------------------------------------------
 Center     Atomic      Atomic             Coordinates (Angstroms)
 Number     Number       Type             X           Y           Z
 ---------------------------------------------------------------------
      1          6           0       -0.074032    5.717457    0.138286
      2          6           0       -1.307591    4.896420    0.480479
      3          6           0       -1.185127    3.422580    0.090558
      4          6           0       -0.101386    2.678359    0.874452
      5          7           0       -0.087648    1.249806    0.573464
      6          6           0        0.461706    0.814475   -0.671946
      7          7           0        0.921889   -0.530604   -0.525967
      8          6           0        2.153221   -0.942147   -1.191031
      9          6           0        3.374544   -0.681336   -0.308264
     10          6           0        4.700644   -0.995657   -1.001952
     11          6           0        4.883666   -2.471660   -1.319520
     12          6           0        0.165809   -1.420363    0.206131
     13          8           0        0.521376   -2.583824    0.356946
     14          7           0       -0.982593   -0.901439    0.753639
     15          6           0       -1.912233   -1.804908    1.411800
     16          9           0       -1.450055   -2.113887    2.655590
     17          9           0       -3.079531   -1.123995    1.622437
     18          6           0       -2.289692   -3.114957    0.656209
     19          9           0       -1.335376   -4.073905    0.907633
     20          8           0       -2.282137   -3.012025   -0.778086
     21          6           0       -3.383181   -2.335804   -1.320734
     22          9           0       -3.117483   -2.057707   -2.610425
     23          9           0       -3.586124   -1.180577   -0.673958
     24          9           0       -4.475891   -3.107841   -1.257759
     25          6           0       -3.580222   -3.645485    1.294893
     26          9           0       -4.634856   -2.817098    1.127714
     27          9           0       -3.449302   -3.863643    2.622025
     28          9           0       -3.935140   -4.830642    0.734747
     29          6           0       -0.947932    0.391710    1.240497
     30          8           0       -1.600829    0.779413    2.206738
     31          1           0        0.792345    5.404979    0.728472
     32          1           0       -0.256103    6.775533    0.352405
     33          1           0        0.177684    5.625126   -0.922926
     34          1           0       -2.168580    5.324866   -0.046343
     35          1           0       -1.517587    4.982683    1.552897
     36          1           0       -2.154649    2.938511    0.262754
     37          1           0       -0.989008    3.341808   -0.985646
     38          1           0        0.894793    3.075661    0.652673
     39          1           0       -0.269602    2.810442    1.949569
     40          1           0       -0.308836    0.848907   -1.450039
     41          1           0        1.299027    1.463137   -0.948822
     42          1           0        2.083524   -2.008898   -1.428381
     43          1           0        2.230208   -0.402194   -2.141816
     44          1           0        3.293628   -1.262541    0.618788
     45          1           0        3.385135    0.373808   -0.007318
     46          1           0        4.787190   -0.410158   -1.924619
     47          1           0        5.519632   -0.676653   -0.346261
     48          1           0        5.885944   -2.647144   -1.723476
     49          1           0        4.161740   -2.814057   -2.066595
     50          1           0        4.769022   -3.084536   -0.419912
 ---------------------------------------------------------------------

 SCF Done:  E(RCAM-B3LYP) =  -1871.53075024     A.U. after   13 cycles

 Alpha  occ. eigenvalues --  -24.84006 -24.83601 -24.83514 -24.82958 -24.82348
 Alpha  occ. eigenvalues --  -24.82181 -24.81335 -24.81231 -24.81153 -19.32770
 Alpha  occ. eigenvalues --  -19.20566 -19.20487 -14.49384 -14.45288 -14.45205
 Alpha  occ. eigenvalues --  -10.59566 -10.54712 -10.51338 -10.48226 -10.41967
 Alpha  occ. eigenvalues --  -10.41945 -10.34677 -10.30206 -10.30125 -10.25857
 Alpha  occ. eigenvalues --  -10.25774 -10.25525 -10.25489 -10.24663 -10.24427
 Alpha  occ. eigenvalues --   -1.43396  -1.41185  -1.37405  -1.34055  -1.33820
 Alpha  occ. eigenvalues --   -1.33368  -1.32083  -1.31508  -1.30241  -1.20224
 Alpha  occ. eigenvalues --   -1.18260  -1.13953  -1.07502  -1.05383  -1.00897
 Alpha  occ. eigenvalues --   -0.91987  -0.88927  -0.88069  -0.84096  -0.82361
 Alpha  occ. eigenvalues --   -0.81976  -0.81135  -0.78700  -0.76163  -0.75395
 Alpha  occ. eigenvalues --   -0.74056  -0.72468  -0.71809  -0.70684  -0.70250
 Alpha  occ. eigenvalues --   -0.68997  -0.68156  -0.67676  -0.66678  -0.66074
 Alpha  occ. eigenvalues --   -0.65412  -0.65124  -0.64556  -0.62541  -0.60574
 Alpha  occ. eigenvalues --   -0.59031  -0.58249  -0.57346  -0.56958  -0.56438
 Alpha  occ. eigenvalues --   -0.55773  -0.55199  -0.54691  -0.54357  -0.54184
 Alpha  occ. eigenvalues --   -0.53722  -0.53599  -0.53327  -0.52910  -0.52568
 Alpha  occ. eigenvalues --   -0.52115  -0.51401  -0.51121  -0.51032  -0.50754
 Alpha  occ. eigenvalues --   -0.50224  -0.50134  -0.49610  -0.49299  -0.49167
 Alpha  occ. eigenvalues --   -0.48853  -0.48640  -0.48287  -0.47844  -0.47567
 Alpha  occ. eigenvalues --   -0.47226  -0.46654  -0.46173  -0.45413  -0.43663
 Alpha  occ. eigenvalues --   -0.43085  -0.42267  -0.40273  -0.40123  -0.39494
 Alpha  occ. eigenvalues --   -0.39430  -0.39304  -0.39088  -0.37472  -0.35218
 Alpha  occ. eigenvalues --   -0.34333  -0.31600  -0.31222
 Alpha virt. eigenvalues --    0.05594   0.06101   0.08667   0.09424   0.12186
 Alpha virt. eigenvalues --    0.13551   0.14015   0.15965   0.16604   0.17279
 Alpha virt. eigenvalues --    0.17731   0.18036   0.18428   0.18806   0.18928

 Mulliken charges:
               1
     1  C   -0.324399
     2  C   -0.185346
     3  C   -0.184782
     4  C   -0.054524
     5  N   -0.516210
     6  C    0.128400
     7  N   -0.514615
     8  C   -0.061431
     9  C   -0.173877
    10  C   -0.186278
    11  C   -0.322685
    12  C    0.799045
    13  O   -0.538190
    14  N   -0.642504
    15  C    0.788419
    16  F   -0.259908
    17  F   -0.276989
    18  C    0.417757
    19  F   -0.263992
    20  O   -0.505189
    21  C    0.978120
    22  F   -0.241722
    23  F   -0.241971
    24  F   -0.237692
    25  C    0.804767
    26  F   -0.250010
    27  F   -0.244367
    28  F   -0.260992
    29  C    0.803149
    30  O   -0.537966
    31  H    0.107731
    32  H    0.108857
    33  H    0.104890
    34  H    0.102846
    35  H    0.105868
    36  H    0.114554
    37  H    0.100405
    38  H    0.121640
    39  H    0.143509
    40  H    0.139194
    41  H    0.148362
    42  H    0.146170
    43  H    0.122820
    44  H    0.116041
    45  H    0.096911
    46  H    0.096902
    47  H    0.102799
    48  H    0.105858
    49  H    0.108255
    50  H    0.112369
 Sum of Mulliken charges =   0.00000

 Dipole moment (field-independent basis, Debye):
    X=              3.9065    Y=              5.5036    Z=             -5.0014  Tot=              8.4003
 Quadrupole moment (field-independent basis, Debye-Ang):
   XX=           -169.1226   YY=           -174.9422   ZZ=           -175.9988
   XY=             -0.8949   XZ=              4.7888   YZ=              1.4348

 Normal termination of Gaussian 09 at Sun Mar  3 18:03:28 2024.
