 Gaussian 09, Revision D.01,
 Gaussian 09:  ES64L-G09RevD.01 24-Apr-2013

 ----------------------------------------------------------------------
 #p CAM-B3LYP/6-31G(d,p) SCRF=(PCM,Solvent=Generic,Read) NoSymm out=wfn
 ----------------------------------------------------------------------

 -------------------
 Title A892693591_p1
 -------------------
 Symbolic Z-matrix:
 Charge =  1 Multiplicity = 2

                          Input orientation:
 ---------------------------------------------------------------------
 Center     Atomic      Atomic             Coordinates (Angstroms)
 Number     Number       Type             X           Y           Z
 ---------------------------------------------------------------------
      1          6           0       -0.074032    5.717457    0.138286
      2          6           0       -1.307591    4.896420    0.480479
      3          6           0       -1.185127    3.422580    0.090558
      4          6           0       -0.101386    2.678359    0.874452
      5          7           0       -0.087648    1.249806    0.573464
      6          6           0        0.461706    0.814475   -0.671946
      7          7           0        0.921889   -0.530604   -0.525967
      8          6           0        2.153221   -0.942147   -1.191031
      9          6           0        3.374544   -0.681336   -0.308264
     10          6           0        4.700644   -0.995657   -1.001952
     11          6           0        4.883666   -2.471660   -1.319520
     12          6           0        0.165809   -1.420363    0.206131
     13          8           0        0.521376   -2.583824    0.356946
     14          7           0       -0.982593   -0.901439    0.753639
     15          6           0       -1.912233   -1.804908    1.411800
     16          9           0       -1.450055   -2.113887    2.655590
     17          9           0       -3.079531   -1.123995    1.622437
     18          6           0       -2.289692   -3.114957    0.656209
     19          9           0       -1.335376   -4.073905    0.907633
     20          8           0       -2.282137   -3.012025   -0.778086
     21          6           0       -3.383181   -2.335804   -1.320734
     22          9           0       -3.117483   -2.057707   -2.610425
     23          9           0       -3.586124   -1.180577   -0.673958
     24          9           0       -4.475891   -3.107841   -1.257759
     25          6           0       -3.580222   -3.645485    1.294893
     26          9           0       -4.634856   -2.817098    1.127714
     27          9           0       -3.449302   -3.863643    2.622025
     28          9           0       -3.935140   -4.830642    0.734747
     29          6           0       -0.947932    0.391710    1.240497
     30          8           0       -1.600829    0.779413    2.206738
     31          1           0        0.792345    5.404979    0.728472
     32          1           0       -0.256103    6.775533    0.352405
     33          1           0        0.177684    5.625126   -0.922926
     34          1           0       -2.168580    5.324866   -0.046343
     35          1           0       -1.517587    4.982683    1.552897
     36          1           0       -2.154649    2.938511    0.262754
     37          1           0       -0.989008    3.341808   -0.985646
     38          1           0        0.894793    3.075661    0.652673
     39          1           0       -0.269602    2.810442    1.949569
     40          1           0       -0.308836    0.848907   -1.450039
     41          1           0        1.299027    1.463137   -0.948822
     42          1           0        2.083524   -2.008898   -1.428381
     43          1           0        2.230208   -0.402194   -2.141816
     44          1           0        3.293628   -1.262541    0.618788
     45          1           0        3.385135    0.373808   -0.007318
     46          1           0        4.787190   -0.410158   -1.924619
     47          1           0        5.519632   -0.676653   -0.346261
     48          1           0        5.885944   -2.647144   -1.723476
     49          1           0        4.161740   -2.814057   -2.066595
     50          1           0        4.769022   -3.084536   -0.419912
 ---------------------------------------------------------------------

 SCF Done:  E(UCAM-B3LYP) =  -1871.25122191     A.U. after   31 cycles

 Alpha  occ. eigenvalues --  -24.86726 -24.85766 -24.85707 -24.85571 -24.85504
 Alpha  occ. eigenvalues --  -24.85086 -24.84550 -24.84201 -24.84200 -19.35567
 Alpha  occ. eigenvalues --  -19.33420 -19.26155 -14.64492 -14.56830 -14.51924
 Alpha  occ. eigenvalues --  -10.62013 -10.57069 -10.56024 -10.52562 -10.51412
 Alpha  occ. eigenvalues --  -10.47831 -10.43944 -10.39386 -10.34231 -10.33311
 Alpha  occ. eigenvalues --  -10.30093 -10.28877 -10.27867 -10.27718 -10.26216
 Alpha  occ. eigenvalues --   -1.45809  -1.43462  -1.41592  -1.36760  -1.36491
 Alpha  occ. eigenvalues --   -1.35615  -1.34689  -1.34018  -1.33537  -1.28590
 Alpha  occ. eigenvalues --   -1.23035  -1.22046  -1.19208  -1.13074  -1.09737
 Alpha  occ. eigenvalues --   -0.96535  -0.95109  -0.92400  -0.91222  -0.89124
 Alpha  occ. eigenvalues --   -0.86594  -0.84589  -0.84132  -0.81720  -0.80106
 Alpha  occ. eigenvalues --   -0.77907  -0.76615  -0.75897  -0.75151  -0.73400
 Alpha  occ. eigenvalues --   -0.73168  -0.72783  -0.72026  -0.71680  -0.70535
 Alpha  occ. eigenvalues --   -0.69771  -0.69043  -0.68914  -0.67641  -0.66898
 Alpha  occ. eigenvalues --   -0.65694  -0.64719  -0.62050  -0.61879  -0.61364
 Alpha  occ. eigenvalues --   -0.60605  -0.60026  -0.59672  -0.59256  -0.58767
 Alpha  occ. eigenvalues --   -0.58266  -0.57467  -0.57193  -0.56961  -0.56571
 Alpha  occ. eigenvalues --   -0.56038  -0.55832  -0.55639  -0.55450  -0.55004
 Alpha  occ. eigenvalues --   -0.54697  -0.53417  -0.53379  -0.53002  -0.52888
 Alpha  occ. eigenvalues --   -0.52553  -0.52347  -0.52094  -0.51738  -0.51275
 Alpha  occ. eigenvalues --   -0.50568  -0.50468  -0.50070  -0.49392  -0.49294
 Alpha  occ. eigenvalues --   -0.47597  -0.46480  -0.46359  -0.45398  -0.44587
 Alpha  occ. eigenvalues --   -0.44083  -0.43987  -0.43252  -0.42424  -0.41706
 Alpha  occ. eigenvalues --   -0.41653  -0.40276  -0.37160
 Alpha virt. eigenvalues --   -0.04489   0.00950   0.04163   0.05179   0.06535
 Alpha virt. eigenvalues --    0.08138   0.09454   0.10557   0.11581   0.12114
 Alpha virt. eigenvalues --    0.13238   0.13778   0.14430   0.15072   0.15660

  Beta  occ. eigenvalues --  -24.86726 -24.85766 -24.85707 -24.85568 -24.85499
  Beta  occ. eigenvalues --  -24.85086 -24.84550 -24.84201 -24.84200 -19.35567
  Beta  occ. eigenvalues --  -19.32816 -19.26154 -14.63002 -14.56836 -14.51859
  Beta  occ. eigenvalues --  -10.62013 -10.57069 -10.56026 -10.52783 -10.51412
  Beta  occ. eigenvalues --  -10.47838 -10.43981 -10.39384 -10.34227 -10.33150
  Beta  occ. eigenvalues --  -10.30074 -10.28874 -10.27865 -10.27716 -10.26216
  Beta  occ. eigenvalues --   -1.45809  -1.43461  -1.41584  -1.36759  -1.36491
  Beta  occ. eigenvalues --   -1.35614  -1.34683  -1.34016  -1.33537  -1.27508
  Beta  occ. eigenvalues --   -1.23015  -1.21676  -1.17256  -1.12857  -1.09115
  Beta  occ. eigenvalues --   -0.96200  -0.94908  -0.92125  -0.90997  -0.88896
  Beta  occ. eigenvalues --   -0.86478  -0.84569  -0.83949  -0.81482  -0.79876
  Beta  occ. eigenvalues --   -0.77819  -0.76495  -0.75714  -0.74745  -0.73360
  Beta  occ. eigenvalues --   -0.73093  -0.72069  -0.71900  -0.70869  -0.70512
  Beta  occ. eigenvalues --   -0.69471  -0.68895  -0.68354  -0.67232  -0.66416
  Beta  occ. eigenvalues --   -0.65663  -0.63984  -0.61707  -0.61440  -0.60811
  Beta  occ. eigenvalues --   -0.59835  -0.59714  -0.59217  -0.59181  -0.58471
  Beta  occ. eigenvalues --   -0.58064  -0.57430  -0.57044  -0.56656  -0.56435
  Beta  occ. eigenvalues --   -0.56018  -0.55526  -0.55448  -0.55127  -0.54840
  Beta  occ. eigenvalues --   -0.54517  -0.53398  -0.53106  -0.52821  -0.52536
  Beta  occ. eigenvalues --   -0.52458  -0.52098  -0.51768  -0.51716  -0.51257
  Beta  occ. eigenvalues --   -0.50454  -0.50400  -0.49992  -0.49193  -0.48843
  Beta  occ. eigenvalues --   -0.46393  -0.46153  -0.45080  -0.44540  -0.44181
  Beta  occ. eigenvalues --   -0.43562  -0.43221  -0.42279  -0.41681  -0.41634
  Beta  occ. eigenvalues --   -0.40141  -0.36811
  Beta virt. eigenvalues --   -0.24469  -0.02671   0.01041   0.04230   0.05278
  Beta virt. eigenvalues --    0.06646   0.08328   0.10036   0.10727   0.11822
  Beta virt. eigenvalues --    0.12249   0.13376   0.13849   0.14561   0.15184

 Mulliken charges and spin densities:
               1          2
     1  C   -0.333658   0.000787
     2  C   -0.195047   0.010079
     3  C   -0.212590   0.080490
     4  C   -0.108122  -0.012579
     5  N   -0.333968   0.680823
     6  C    0.078059  -0.034235
     7  N   -0.525599   0.026384
     8  C   -0.076469   0.001430
     9  C   -0.181596   0.000768
    10  C   -0.187545   0.001174
    11  C   -0.325470  -0.000026
    12  C    0.830822  -0.002259
    13  O   -0.490241   0.000843
    14  N   -0.641031   0.002713
    15  C    0.793744  -0.000909
    16  F   -0.244184   0.001126
    17  F   -0.267964   0.000728
    18  C    0.418155  -0.000042
    19  F   -0.256498   0.000026
    20  O   -0.501865   0.000028
    21  C    0.980597  -0.000034
    22  F   -0.237869   0.000004
    23  F   -0.245972   0.000049
    24  F   -0.231397   0.000007
    25  C    0.812450  -0.000024
    26  F   -0.247401   0.000002
    27  F   -0.240190   0.000005
    28  F   -0.253939  -0.000013
    29  C    0.856498  -0.127901
    30  O   -0.384158   0.239225
    31  H    0.114261   0.000932
    32  H    0.134246   0.001301
    33  H    0.119205  -0.000114
    34  H    0.144220   0.010310
    35  H    0.133043   0.000113
    36  H    0.157232  -0.003078
    37  H    0.149050  -0.002000
    38  H    0.201301   0.016001
    39  H    0.218914   0.014293
    40  H    0.254733   0.075882
    41  H    0.225721   0.016131
    42  H    0.172517   0.000687
    43  H    0.145371   0.000817
    44  H    0.126435  -0.000062
    45  H    0.096783  -0.000080
    46  H    0.104305  -0.000049
    47  H    0.113451   0.000227
    48  H    0.115772   0.000005
    49  H    0.109763   0.000008
    50  H    0.116125   0.000006
 Sum of Mulliken charges =   1.00000   1.00000

 Dipole moment (field-independent basis, Debye):
    X=              2.2059    Y=             10.8082    Z=             -2.4488  Tot=             11.2995
 Quadrupole moment (field-independent basis, Debye-Ang):
   XX=           -154.2598   YY=           -143.1069   ZZ=           -163.6997
   XY=             -4.1012   XZ=             -0.0149   YZ=              4.5612

 Normal termination of Gaussian 09 at Sun Mar  3 18:04:45 2024.
