 Gaussian 09, Revision D.01,
 Gaussian 09:  ES64L-G09RevD.01 24-Apr-2013

 ----------------------------------------------------------------------
 #p CAM-B3LYP/6-31G(d,p) SCRF=(PCM,Solvent=Generic,Read) NoSymm out=wfn
 ----------------------------------------------------------------------

 --------------
 Title D2D2_pos
 --------------
 Symbolic Z-matrix:
 Charge =  1 Multiplicity = 2

                          Input orientation:
 ---------------------------------------------------------------------
 Center     Atomic      Atomic             Coordinates (Angstroms)
 Number     Number       Type             X           Y           Z
 ---------------------------------------------------------------------
      1          8           0       -5.886660    0.893103   -1.519461
      2          6           0       -4.730945    0.513718   -1.316157
      3          7           0       -4.178671    0.495305   -0.053876
      4          6           0       -4.995281    0.984276    1.060757
      5          6           0       -5.996174   -0.060966    1.575997
      6          6           0       -5.395272   -1.183156    2.429123
      7          6           0       -4.966164   -0.814254    3.853459
      8          9           0       -4.044897    0.183702    3.814614
      9          9           0       -4.312734   -1.903390    4.365729
     10          6           0       -6.119999   -0.433579    4.802439
     11          9           0       -7.060887   -1.411246    4.802395
     12          9           0       -6.725289    0.702992    4.373255
     13          8           0       -5.662568   -0.209043    6.115099
     14          6           0       -6.741107   -0.237107    6.999905
     15          9           0       -7.782855    0.490045    6.554019
     16          9           0       -7.128347   -1.509083    7.218019
     17          9           0       -6.337107    0.284025    8.176941
     18          6           0       -2.911417    0.020967    0.205353
     19          8           0       -2.464585   -0.046372    1.351382
     20          7           0       -2.163603   -0.369356   -0.884807
     21          6           0       -0.789907   -0.823632   -0.655505
     22          6           0        0.225743    0.329569   -0.687572
     23          7           0        1.540761   -0.083635   -0.187918
     24          6           0        1.793913    0.058280    1.159246
     25          8           0        0.964205    0.552187    1.924527
     26          7           0        3.025179   -0.372859    1.606042
     27          6           0        3.320897   -0.234052    3.033229
     28          6           0        3.762696    1.185603    3.417979
     29          6           0        5.229110    1.521389    3.130456
     30          6           0        6.299433    0.825733    3.980350
     31          9           0        7.512529    1.195713    3.464626
     32          9           0        6.221401   -0.520003    3.805395
     33          6           0        6.270503    1.163141    5.486262
     34          9           0        6.335546    2.506865    5.660901
     35          9           0        7.353505    0.621464    6.097904
     36          8           0        5.126874    0.654822    6.131896
     37          6           0        4.980851    1.270341    7.378991
     38          9           0        6.139564    1.346662    8.056686
     39          9           0        4.107809    0.541176    8.107146
     40          9           0        4.460053    2.502507    7.218845
     41          6           0        3.995833   -0.879144    0.771326
     42          8           0        5.134335   -1.122867    1.173322
     43          7           0        3.631263   -1.079508   -0.543587
     44          6           0        4.625170   -1.655349   -1.451196
     45          6           0        5.515055   -0.566189   -2.060888
     46          6           0        6.449964   -1.054973   -3.174259
     47          6           0        7.441014   -2.128486   -2.733310
     48          9           0        6.751205   -3.259856   -2.411839
     49          9           0        8.059169   -1.717869   -1.592005
     50          6           0        8.485711   -2.446452   -3.821178
     51          9           0        9.190190   -1.326450   -4.125458
     52          9           0        7.860563   -2.846811   -4.957993
     53          8           0        9.396071   -3.432553   -3.398819
     54          6           0       10.088845   -3.933037   -4.503438
     55          9           0       10.527708   -2.953032   -5.314078
     56          9           0       11.160687   -4.620651   -4.054689
     57          9           0        9.310578   -4.783564   -5.198239
     58          6           0        2.418933   -0.681527   -1.064919
     59          8           0        2.132935   -0.848374   -2.251600
     60          6           0       -2.592742   -0.219137   -2.184321
     61          8           0       -1.827130   -0.348193   -3.140636
     62          7           0       -3.919749    0.106077   -2.351596
     63          6           0       -4.461251    0.175583   -3.707143
     64          6           0       -4.365494    1.596352   -4.278371
     65          6           0       -4.842774    1.711038   -5.726481
     66          6           0       -6.330298    1.477808   -6.000279
     67          9           0       -6.677248    0.245713   -5.546889
     68          9           0       -6.465554    1.405956   -7.362571
     69          6           0       -7.290910    2.566147   -5.464448
     70          9           0       -8.551848    2.353053   -5.918179
     71          9           0       -6.916377    3.772725   -5.983569
     72          8           0       -7.295076    2.748582   -4.068332
     73          6           0       -8.386806    2.087054   -3.493431
     74          9           0       -9.543216    2.688334   -3.836366
     75          9           0       -8.410347    0.794737   -3.856515
     76          9           0       -8.274512    2.155487   -2.152677
     77          1           0       -5.563348    1.852819    0.702135
     78          1           0       -4.354689    1.352330    1.866957
     79          1           0       -6.781045    0.451602    2.139288
     80          1           0       -6.501500   -0.524062    0.719207
     81          1           0       -4.536391   -1.620959    1.906041
     82          1           0       -6.129228   -1.997079    2.497750
     83          1           0       -0.526455   -1.568169   -1.416619
     84          1           0       -0.740909   -1.341793    0.308863
     85          1           0        0.325434    0.702586   -1.713651
     86          1           0       -0.143282    1.172695   -0.091612
     87          1           0        4.054793   -0.982636    3.341096
     88          1           0        2.405292   -0.469595    3.589450
     89          1           0        3.546696    1.351696    4.476684
     90          1           0        3.142764    1.914366    2.880915
     91          1           0        5.361448    2.605418    3.245006
     92          1           0        5.441734    1.321478    2.074638
     93          1           0        5.232270   -2.375852   -0.893093
     94          1           0        4.114799   -2.210111   -2.246414
     95          1           0        4.880560    0.225709   -2.478916
     96          1           0        6.107368   -0.090338   -1.269148
     97          1           0        5.844596   -1.435930   -4.004579
     98          1           0        7.001039   -0.182710   -3.545543
     99          1           0       -3.921385   -0.524256   -4.354607
    100          1           0       -5.502674   -0.157689   -3.671826
    101          1           0       -4.900755    2.305382   -3.640371
    102          1           0       -3.314658    1.912547   -4.246184
    103          1           0       -4.570485    2.702675   -6.110004
    104          1           0       -4.271988    0.997405   -6.334479
 ---------------------------------------------------------------------

 SCF Done:  E(UCAM-B3LYP) =  -5110.89692189     A.U. after   43 cycles

 Alpha  occ. eigenvalues --   -1.40212  -1.39904  -1.39885  -1.39862  -1.37143
 Alpha  occ. eigenvalues --   -1.37068  -1.36968  -1.36548  -1.34277  -1.34240
 Alpha  occ. eigenvalues --   -1.34152  -1.33962  -1.33525  -1.33493  -1.33460
 Alpha  occ. eigenvalues --   -1.33181  -1.32971  -1.32742  -1.32600  -1.32424
 Alpha  occ. eigenvalues --   -1.30976  -1.30748  -1.30661  -1.30416  -1.27043
 Alpha  occ. eigenvalues --   -1.26417  -1.22163  -1.21833  -1.21785  -1.21582
 Alpha  occ. eigenvalues --   -1.21554  -1.21389  -1.20816  -1.20369  -1.14471
 Alpha  occ. eigenvalues --   -1.13724  -1.11012  -1.10346  -1.09524  -1.09020
 Alpha  occ. eigenvalues --   -0.96168  -0.93926  -0.93500  -0.93385  -0.93284
 Alpha  occ. eigenvalues --   -0.90275  -0.89828  -0.89448  -0.89368  -0.86659
 Alpha  occ. eigenvalues --   -0.86279  -0.85954  -0.85545  -0.85235  -0.82671
 Alpha  occ. eigenvalues --   -0.82269  -0.81518  -0.80989  -0.80005  -0.79450
 Alpha  occ. eigenvalues --   -0.79062  -0.78373  -0.77386  -0.77043  -0.76651
 Alpha  occ. eigenvalues --   -0.76333  -0.75778  -0.75693  -0.74083  -0.73448
 Alpha  occ. eigenvalues --   -0.73293  -0.72691  -0.72445  -0.72439  -0.72102
 Alpha  occ. eigenvalues --   -0.71704  -0.71331  -0.71053  -0.70967  -0.70895
 Alpha  occ. eigenvalues --   -0.70655  -0.70506  -0.70446  -0.70431  -0.69212
 Alpha  occ. eigenvalues --   -0.69129  -0.68651  -0.68560  -0.68335  -0.68137
 Alpha  occ. eigenvalues --   -0.67803  -0.67640  -0.67009  -0.66925  -0.65817
 Alpha  occ. eigenvalues --   -0.65514  -0.64784  -0.64706  -0.64574  -0.64488
 Alpha  occ. eigenvalues --   -0.62685  -0.62433  -0.62221  -0.61982  -0.61896
 Alpha  occ. eigenvalues --   -0.61760  -0.61700  -0.61538  -0.61221  -0.60914
 Alpha  occ. eigenvalues --   -0.60759  -0.60194  -0.59697  -0.59401  -0.59238
 Alpha  occ. eigenvalues --   -0.58865  -0.58648  -0.58414  -0.58252  -0.58082
 Alpha  occ. eigenvalues --   -0.57902  -0.57842  -0.57577  -0.57386  -0.57299
 Alpha  occ. eigenvalues --   -0.57255  -0.57239  -0.57124  -0.56991  -0.56718
 Alpha  occ. eigenvalues --   -0.56246  -0.56146  -0.56134  -0.56063  -0.55781
 Alpha  occ. eigenvalues --   -0.55482  -0.55398  -0.55126  -0.55087  -0.54777
 Alpha  occ. eigenvalues --   -0.54698  -0.54401  -0.54288  -0.54079  -0.53916
 Alpha  occ. eigenvalues --   -0.53803  -0.53686  -0.53467  -0.53383  -0.53321
 Alpha  occ. eigenvalues --   -0.53262  -0.53249  -0.53203  -0.52968  -0.52822
 Alpha  occ. eigenvalues --   -0.52508  -0.52308  -0.52159  -0.52137  -0.51902
 Alpha  occ. eigenvalues --   -0.51749  -0.51726  -0.51439  -0.51399  -0.51390
 Alpha  occ. eigenvalues --   -0.51343  -0.51209  -0.51184  -0.50926  -0.50740
 Alpha  occ. eigenvalues --   -0.50698  -0.50538  -0.50507  -0.50488  -0.50457
 Alpha  occ. eigenvalues --   -0.50280  -0.50177  -0.50123  -0.50027  -0.49945
 Alpha  occ. eigenvalues --   -0.49792  -0.49740  -0.49333  -0.49200  -0.49058
 Alpha  occ. eigenvalues --   -0.48204  -0.47988  -0.47757  -0.47515  -0.47452
 Alpha  occ. eigenvalues --   -0.47042  -0.46645  -0.46540  -0.46190  -0.45925
 Alpha  occ. eigenvalues --   -0.45725  -0.45508  -0.45447  -0.45128  -0.44848
 Alpha  occ. eigenvalues --   -0.44718  -0.44323  -0.44141  -0.43878  -0.43604
 Alpha  occ. eigenvalues --   -0.43480  -0.42993  -0.42538  -0.42314  -0.41993
 Alpha  occ. eigenvalues --   -0.41916  -0.39946  -0.39755  -0.39521  -0.39438
 Alpha  occ. eigenvalues --   -0.39328  -0.38778
 Alpha virt. eigenvalues --   -0.02914  -0.02543  -0.02362  -0.01903   0.07830
 Alpha virt. eigenvalues --    0.08234   0.08761   0.09199   0.09502   0.09679
 Alpha virt. eigenvalues --    0.09838   0.09866   0.10293   0.10552   0.10920

  Beta  occ. eigenvalues --  -24.84579 -24.84505 -24.84298 -24.84270 -24.84103
  Beta  occ. eigenvalues --  -24.84096 -24.84051 -24.83955 -24.83865 -24.83862
  Beta  occ. eigenvalues --  -24.83762 -24.83758 -24.83712 -24.83636 -24.83508
  Beta  occ. eigenvalues --  -24.83504 -24.83436 -24.83212 -24.83173 -24.82646
  Beta  occ. eigenvalues --  -24.82426 -24.82215 -24.82181 -24.81887 -24.81733
  Beta  occ. eigenvalues --  -24.81385 -24.81339 -24.81212 -19.33756 -19.33663
  Beta  occ. eigenvalues --  -19.33312 -19.33138 -19.29275 -19.29099 -19.28659
  Beta  occ. eigenvalues --  -19.28417 -19.26692 -19.26242 -14.59639 -14.59004
  Beta  occ. eigenvalues --  -14.54149 -14.53905 -14.53592 -14.53580 -10.60293
  Beta  occ. eigenvalues --  -10.60268 -10.59981 -10.59813 -10.54010 -10.53981
  Beta  occ. eigenvalues --  -10.53690 -10.53673 -10.49984 -10.49873 -10.49510
  Beta  occ. eigenvalues --  -10.49339 -10.47785 -10.47693 -10.47682 -10.47629
  Beta  occ. eigenvalues --  -10.47433 -10.47387 -10.40386 -10.40216 -10.34448
  Beta  occ. eigenvalues --  -10.34218 -10.34052 -10.33981 -10.30750 -10.30647
  Beta  occ. eigenvalues --  -10.30628 -10.30277 -10.30210 -10.30186 -10.29996
  Beta  occ. eigenvalues --  -10.29982  -1.43811  -1.43784  -1.43632  -1.43470
  Beta  occ. eigenvalues --   -1.40212  -1.39904  -1.39885  -1.39862  -1.37143
  Beta  occ. eigenvalues --   -1.37067  -1.36968  -1.36547  -1.34277  -1.34240
  Beta  occ. eigenvalues --   -1.34152  -1.33962  -1.33525  -1.33493  -1.33460
  Beta  occ. eigenvalues --   -1.33181  -1.32971  -1.32742  -1.32600  -1.32424
  Beta  occ. eigenvalues --   -1.30976  -1.30748  -1.30661  -1.30415  -1.26532
  Beta  occ. eigenvalues --   -1.25967  -1.21833  -1.21785  -1.21762  -1.21582
  Beta  occ. eigenvalues --   -1.21389  -1.21231  -1.20593  -1.20167  -1.13500
  Beta  occ. eigenvalues --   -1.12874  -1.10697  -1.09940  -1.09396  -1.08911
  Beta  occ. eigenvalues --   -0.95609  -0.93896  -0.93462  -0.93303  -0.93245
  Beta  occ. eigenvalues --   -0.90248  -0.89777  -0.89410  -0.89333  -0.86513
  Beta  occ. eigenvalues --   -0.86164  -0.85859  -0.85498  -0.85158  -0.82570
  Beta  occ. eigenvalues --   -0.82175  -0.81457  -0.80958  -0.79863  -0.79390
  Beta  occ. eigenvalues --   -0.79004  -0.78197  -0.77323  -0.76973  -0.76613
  Beta  occ. eigenvalues --   -0.76209  -0.75764  -0.75685  -0.74032  -0.73394
  Beta  occ. eigenvalues --   -0.73263  -0.72684  -0.72442  -0.72439  -0.72094
  Beta  occ. eigenvalues --   -0.71692  -0.71330  -0.71034  -0.70956  -0.70893
  Beta  occ. eigenvalues --   -0.70627  -0.70464  -0.70430  -0.70426  -0.69131
  Beta  occ. eigenvalues --   -0.68639  -0.68510  -0.68348  -0.68170  -0.67824
  Beta  occ. eigenvalues --   -0.67791  -0.67485  -0.66981  -0.66885  -0.65184
  Beta  occ. eigenvalues --   -0.65038  -0.64779  -0.64638  -0.64557  -0.64466
  Beta  occ. eigenvalues --   -0.62588  -0.62285  -0.62158  -0.61909  -0.61797
  Beta  occ. eigenvalues --   -0.61745  -0.61633  -0.61527  -0.61075  -0.60805
  Beta  occ. eigenvalues --   -0.60535  -0.59887  -0.59448  -0.59129  -0.59047
  Beta  occ. eigenvalues --   -0.58634  -0.58351  -0.58304  -0.58220  -0.57981
  Beta  occ. eigenvalues --   -0.57748  -0.57635  -0.57453  -0.57331  -0.57264
  Beta  occ. eigenvalues --   -0.57233  -0.57092  -0.57036  -0.56663  -0.56398
  Beta  occ. eigenvalues --   -0.56186  -0.56134  -0.56113  -0.55792  -0.55660
  Beta  occ. eigenvalues --   -0.55365  -0.55349  -0.55118  -0.55036  -0.54756
  Beta  occ. eigenvalues --   -0.54590  -0.54341  -0.54084  -0.53996  -0.53893
  Beta  occ. eigenvalues --   -0.53788  -0.53398  -0.53345  -0.53313  -0.53253
  Beta  occ. eigenvalues --   -0.53245  -0.53149  -0.52951  -0.52786  -0.52526
  Beta  occ. eigenvalues --   -0.52312  -0.52178  -0.52138  -0.52032  -0.51899
  Beta  occ. eigenvalues --   -0.51737  -0.51701  -0.51399  -0.51395  -0.51356
  Beta  occ. eigenvalues --   -0.51292  -0.51199  -0.51114  -0.50890  -0.50734
  Beta  occ. eigenvalues --   -0.50670  -0.50513  -0.50489  -0.50474  -0.50375
  Beta  occ. eigenvalues --   -0.50259  -0.50123  -0.50099  -0.50021  -0.49888
  Beta  occ. eigenvalues --   -0.49771  -0.49724  -0.49324  -0.49193  -0.49050
  Beta  occ. eigenvalues --   -0.47979  -0.47932  -0.47740  -0.47389  -0.47377
  Beta  occ. eigenvalues --   -0.46894  -0.46554  -0.46405  -0.45913  -0.45872
  Beta  occ. eigenvalues --   -0.45626  -0.45431  -0.44968  -0.44711  -0.44643
  Beta  occ. eigenvalues --   -0.44170  -0.44109  -0.43701  -0.43283  -0.42835
  Beta  occ. eigenvalues --   -0.42534  -0.42279  -0.42047  -0.41931  -0.40415
  Beta  occ. eigenvalues --   -0.39515  -0.39246  -0.39147  -0.38789  -0.38367
  Beta  occ. eigenvalues --   -0.38223
  Beta virt. eigenvalues --   -0.28325  -0.02497  -0.01955  -0.01936  -0.01169
  Beta virt. eigenvalues --    0.08052   0.08674   0.08982   0.09317   0.09591
  Beta virt. eigenvalues --    0.09702   0.09868   0.09918   0.10337   0.10656

 Mulliken charges and spin densities:
               1          2
     1  O   -0.495703   0.029405
     2  C    0.847541  -0.013639
     3  N   -0.562514   0.001039
     4  C   -0.077384   0.000331
     5  C   -0.218863   0.001546
     6  C   -0.266866   0.000526
     7  C    0.550192   0.000014
     8  F   -0.269878   0.000053
     9  F   -0.288477   0.000007
    10  C    0.767421   0.000029
    11  F   -0.263742   0.000000
    12  F   -0.257962   0.000001
    13  O   -0.512882   0.000005
    14  C    0.988812   0.000002
    15  F   -0.246782   0.000000
    16  F   -0.247428   0.000000
    17  F   -0.246384   0.000001
    18  C    0.847875  -0.058263
    19  O   -0.460878   0.114707
    20  N   -0.501898   0.307719
    21  C   -0.077758   0.048921
    22  C   -0.076967   0.052440
    23  N   -0.512412   0.284957
    24  C    0.849173  -0.048252
    25  O   -0.474600   0.078302
    26  N   -0.558111   0.015472
    27  C   -0.074704   0.000643
    28  C   -0.216247   0.002625
    29  C   -0.264222   0.000640
    30  C    0.552681   0.000016
    31  F   -0.286822   0.000053
    32  F   -0.266978  -0.000002
    33  C    0.759474  -0.000002
    34  F   -0.264537   0.000002
    35  F   -0.264328   0.000004
    36  O   -0.513628   0.000028
    37  C    0.993670   0.000000
    38  F   -0.240636   0.000002
    39  F   -0.247003   0.000000
    40  F   -0.249465   0.000000
    41  C    0.839710  -0.012185
    42  O   -0.491730   0.027337
    43  N   -0.570344   0.009913
    44  C   -0.071587  -0.000316
    45  C   -0.208926   0.002334
    46  C   -0.264573   0.000235
    47  C    0.544331  -0.000009
    48  F   -0.279930   0.000009
    49  F   -0.279648   0.000004
    50  C    0.774891  -0.000001
    51  F   -0.263029   0.000005
    52  F   -0.267204   0.000001
    53  O   -0.515254   0.000002
    54  C    0.987696   0.000001
    55  F   -0.245897   0.000000
    56  F   -0.247235   0.000000
    57  F   -0.246978   0.000000
    58  C    0.848878  -0.049722
    59  O   -0.475309   0.089303
    60  C    0.846091  -0.051427
    61  O   -0.465856   0.090412
    62  N   -0.560884   0.028526
    63  C   -0.069658   0.001242
    64  C   -0.214610   0.004891
    65  C   -0.278405   0.000473
    66  C    0.563956  -0.000032
    67  F   -0.269700   0.000013
    68  F   -0.286092   0.000036
    69  C    0.729331   0.000000
    70  F   -0.257585   0.000000
    71  F   -0.261783   0.000003
    72  O   -0.508020   0.000003
    73  C    1.007653  -0.000019
    74  F   -0.247907   0.000001
    75  F   -0.249162   0.000002
    76  F   -0.244733   0.000006
    77  H    0.168175   0.000165
    78  H    0.169515  -0.000069
    79  H    0.146076  -0.000134
    80  H    0.141444   0.000034
    81  H    0.139918  -0.000057
    82  H    0.151939  -0.000077
    83  H    0.222423   0.011060
    84  H    0.219235   0.007708
    85  H    0.220947   0.009732
    86  H    0.216733   0.007796
    87  H    0.173547   0.000107
    88  H    0.164812   0.000652
    89  H    0.142962   0.000326
    90  H    0.134285  -0.000079
    91  H    0.146789   0.000354
    92  H    0.146440   0.000008
    93  H    0.171383   0.000575
    94  H    0.162054   0.000209
    95  H    0.131412  -0.000043
    96  H    0.144940   0.000176
    97  H    0.152285   0.000075
    98  H    0.155433   0.000147
    99  H    0.163698   0.000609
   100  H    0.167409  -0.000020
   101  H    0.147429   0.000142
   102  H    0.134728  -0.000209
   103  H    0.155518   0.000339
   104  H    0.157192   0.000100
 Sum of Mulliken charges =   1.00000   1.00000

 Dipole moment (field-independent basis, Debye):
    X=             -3.7362    Y=              1.2584    Z=             -5.7950  Tot=              7.0090
 Quadrupole moment (field-independent basis, Debye-Ang):
   XX=           -416.2886   YY=           -402.5866   ZZ=           -422.6978
   XY=             21.6091   XZ=             -6.1506   YZ=             -2.3203

 Normal termination of Gaussian 09 at Sun Feb  2 12:04:05 2025.
