 Gaussian 09, Revision D.01,
 Gaussian 09:  ES64L-G09RevD.01 24-Apr-2013

 ----------------------------------------------------------------------
 #p CAM-B3LYP/6-31G(d,p) SCRF=(PCM,Solvent=Generic,Read) NoSymm out=wfn
 ----------------------------------------------------------------------

 --------------
 Title D2D2_neu
 --------------
 Symbolic Z-matrix:
 Charge =  0 Multiplicity = 1

                          Input orientation:
 ---------------------------------------------------------------------
 Center     Atomic      Atomic             Coordinates (Angstroms)
 Number     Number       Type             X           Y           Z
 ---------------------------------------------------------------------
      1          8           0       -5.886660    0.893103   -1.519461
      2          6           0       -4.730945    0.513718   -1.316157
      3          7           0       -4.178671    0.495305   -0.053876
      4          6           0       -4.995281    0.984276    1.060757
      5          6           0       -5.996174   -0.060966    1.575997
      6          6           0       -5.395272   -1.183156    2.429123
      7          6           0       -4.966164   -0.814254    3.853459
      8          9           0       -4.044897    0.183702    3.814614
      9          9           0       -4.312734   -1.903390    4.365729
     10          6           0       -6.119999   -0.433579    4.802439
     11          9           0       -7.060887   -1.411246    4.802395
     12          9           0       -6.725289    0.702992    4.373255
     13          8           0       -5.662568   -0.209043    6.115099
     14          6           0       -6.741107   -0.237107    6.999905
     15          9           0       -7.782855    0.490045    6.554019
     16          9           0       -7.128347   -1.509083    7.218019
     17          9           0       -6.337107    0.284025    8.176941
     18          6           0       -2.911417    0.020967    0.205353
     19          8           0       -2.464585   -0.046372    1.351382
     20          7           0       -2.163603   -0.369356   -0.884807
     21          6           0       -0.789907   -0.823632   -0.655505
     22          6           0        0.225743    0.329569   -0.687572
     23          7           0        1.540761   -0.083635   -0.187918
     24          6           0        1.793913    0.058280    1.159246
     25          8           0        0.964205    0.552187    1.924527
     26          7           0        3.025179   -0.372859    1.606042
     27          6           0        3.320897   -0.234052    3.033229
     28          6           0        3.762696    1.185603    3.417979
     29          6           0        5.229110    1.521389    3.130456
     30          6           0        6.299433    0.825733    3.980350
     31          9           0        7.512529    1.195713    3.464626
     32          9           0        6.221401   -0.520003    3.805395
     33          6           0        6.270503    1.163141    5.486262
     34          9           0        6.335546    2.506865    5.660901
     35          9           0        7.353505    0.621464    6.097904
     36          8           0        5.126874    0.654822    6.131896
     37          6           0        4.980851    1.270341    7.378991
     38          9           0        6.139564    1.346662    8.056686
     39          9           0        4.107809    0.541176    8.107146
     40          9           0        4.460053    2.502507    7.218845
     41          6           0        3.995833   -0.879144    0.771326
     42          8           0        5.134335   -1.122867    1.173322
     43          7           0        3.631263   -1.079508   -0.543587
     44          6           0        4.625170   -1.655349   -1.451196
     45          6           0        5.515055   -0.566189   -2.060888
     46          6           0        6.449964   -1.054973   -3.174259
     47          6           0        7.441014   -2.128486   -2.733310
     48          9           0        6.751205   -3.259856   -2.411839
     49          9           0        8.059169   -1.717869   -1.592005
     50          6           0        8.485711   -2.446452   -3.821178
     51          9           0        9.190190   -1.326450   -4.125458
     52          9           0        7.860563   -2.846811   -4.957993
     53          8           0        9.396071   -3.432553   -3.398819
     54          6           0       10.088845   -3.933037   -4.503438
     55          9           0       10.527708   -2.953032   -5.314078
     56          9           0       11.160687   -4.620651   -4.054689
     57          9           0        9.310578   -4.783564   -5.198239
     58          6           0        2.418933   -0.681527   -1.064919
     59          8           0        2.132935   -0.848374   -2.251600
     60          6           0       -2.592742   -0.219137   -2.184321
     61          8           0       -1.827130   -0.348193   -3.140636
     62          7           0       -3.919749    0.106077   -2.351596
     63          6           0       -4.461251    0.175583   -3.707143
     64          6           0       -4.365494    1.596352   -4.278371
     65          6           0       -4.842774    1.711038   -5.726481
     66          6           0       -6.330298    1.477808   -6.000279
     67          9           0       -6.677248    0.245713   -5.546889
     68          9           0       -6.465554    1.405956   -7.362571
     69          6           0       -7.290910    2.566147   -5.464448
     70          9           0       -8.551848    2.353053   -5.918179
     71          9           0       -6.916377    3.772725   -5.983569
     72          8           0       -7.295076    2.748582   -4.068332
     73          6           0       -8.386806    2.087054   -3.493431
     74          9           0       -9.543216    2.688334   -3.836366
     75          9           0       -8.410347    0.794737   -3.856515
     76          9           0       -8.274512    2.155487   -2.152677
     77          1           0       -5.563348    1.852819    0.702135
     78          1           0       -4.354689    1.352330    1.866957
     79          1           0       -6.781045    0.451602    2.139288
     80          1           0       -6.501500   -0.524062    0.719207
     81          1           0       -4.536391   -1.620959    1.906041
     82          1           0       -6.129228   -1.997079    2.497750
     83          1           0       -0.526455   -1.568169   -1.416619
     84          1           0       -0.740909   -1.341793    0.308863
     85          1           0        0.325434    0.702586   -1.713651
     86          1           0       -0.143282    1.172695   -0.091612
     87          1           0        4.054793   -0.982636    3.341096
     88          1           0        2.405292   -0.469595    3.589450
     89          1           0        3.546696    1.351696    4.476684
     90          1           0        3.142764    1.914366    2.880915
     91          1           0        5.361448    2.605418    3.245006
     92          1           0        5.441734    1.321478    2.074638
     93          1           0        5.232270   -2.375852   -0.893093
     94          1           0        4.114799   -2.210111   -2.246414
     95          1           0        4.880560    0.225709   -2.478916
     96          1           0        6.107368   -0.090338   -1.269148
     97          1           0        5.844596   -1.435930   -4.004579
     98          1           0        7.001039   -0.182710   -3.545543
     99          1           0       -3.921385   -0.524256   -4.354607
    100          1           0       -5.502674   -0.157689   -3.671826
    101          1           0       -4.900755    2.305382   -3.640371
    102          1           0       -3.314658    1.912547   -4.246184
    103          1           0       -4.570485    2.702675   -6.110004
    104          1           0       -4.271988    0.997405   -6.334479
 ---------------------------------------------------------------------

 SCF Done:  E(RCAM-B3LYP) =  -5111.20943383     A.U. after   13 cycles

 Alpha  occ. eigenvalues --  -24.83444 -24.83200 -24.83194 -24.83167 -24.82920
 Alpha  occ. eigenvalues --  -24.82884 -24.82856 -24.82832 -24.82718 -24.82667
 Alpha  occ. eigenvalues --  -24.82629 -24.82513 -24.82502 -24.82451 -24.82393
 Alpha  occ. eigenvalues --  -24.82379 -24.82300 -24.82033 -24.81910 -24.81444
 Alpha  occ. eigenvalues --  -24.80798 -24.80673 -24.80438 -24.80138 -24.80070
 Alpha  occ. eigenvalues --  -24.79901 -24.79741 -24.79587 -19.32367 -19.32295
 Alpha  occ. eigenvalues --  -19.32081 -19.32021 -19.22330 -19.22177 -19.22118
 Alpha  occ. eigenvalues --  -19.22045 -19.22001 -19.21959 -14.49250 -14.49237
 Alpha  occ. eigenvalues --  -14.48920 -14.48841 -14.48819 -14.48768 -10.59136
 Alpha  occ. eigenvalues --  -10.58874 -10.58872 -10.58864 -10.52614 -10.52478
 Alpha  occ. eigenvalues --  -10.52455 -10.52357 -10.46122 -10.46085 -10.45790
 Alpha  occ. eigenvalues --  -10.45765 -10.43479 -10.43442 -10.43368 -10.43295
 Alpha  occ. eigenvalues --  -10.43274 -10.43224 -10.31966 -10.31879 -10.31058
 Alpha  occ. eigenvalues --  -10.31007 -10.30991 -10.30849 -10.28843 -10.28799
 Alpha  occ. eigenvalues --  -10.28418 -10.28229 -10.27775 -10.27598 -10.27526
 Alpha  occ. eigenvalues --  -10.27491  -1.42681  -1.42529  -1.42513  -1.42410
 Alpha  occ. eigenvalues --   -1.38827  -1.38739  -1.38622  -1.38584  -1.35677
 Alpha  occ. eigenvalues --   -1.35550  -1.35065  -1.35005  -1.33176  -1.33008
 Alpha  occ. eigenvalues --   -1.33000  -1.32867  -1.32365  -1.32305  -1.32247
 Alpha  occ. eigenvalues --   -1.32167  -1.31741  -1.31667  -1.31396  -1.31130
 Alpha  occ. eigenvalues --   -1.29505  -1.29250  -1.28869  -1.28773  -1.20509
 Alpha  occ. eigenvalues --   -1.20393  -1.20334  -1.20297  -1.20265  -1.20114
 Alpha  occ. eigenvalues --   -1.15536  -1.15467  -1.15438  -1.15358  -1.07062
 Alpha  occ. eigenvalues --   -1.06949  -1.04913  -1.04417  -1.04266  -1.04048
 Alpha  occ. eigenvalues --   -0.91724  -0.91624  -0.91297  -0.91201  -0.88637
 Alpha  occ. eigenvalues --   -0.87906  -0.87207  -0.86997  -0.86499  -0.83483
 Alpha  occ. eigenvalues --   -0.83058  -0.82547  -0.82336  -0.79659  -0.79381
 Alpha  occ. eigenvalues --   -0.79092  -0.78902  -0.78681  -0.76324  -0.76237
 Alpha  occ. eigenvalues --   -0.75938  -0.75431  -0.74264  -0.73736  -0.73700
 Alpha  occ. eigenvalues --   -0.72790  -0.71810  -0.71732  -0.71434  -0.71267
 Alpha  occ. eigenvalues --   -0.71232  -0.71215  -0.70892  -0.70585  -0.70362
 Alpha  occ. eigenvalues --   -0.70307  -0.69927  -0.69828  -0.69759  -0.69724
 Alpha  occ. eigenvalues --   -0.69136  -0.68911  -0.68603  -0.68463  -0.67605
 Alpha  occ. eigenvalues --   -0.67197  -0.67175  -0.66871  -0.66463  -0.66304
 Alpha  occ. eigenvalues --   -0.65547  -0.65520  -0.63380  -0.63330  -0.63048
 Alpha  occ. eigenvalues --   -0.62707  -0.62678  -0.62456  -0.60947  -0.60850
 Alpha  occ. eigenvalues --   -0.60733  -0.60556  -0.60458  -0.60218  -0.59846
 Alpha  occ. eigenvalues --   -0.59559  -0.58862  -0.58490  -0.57105  -0.57081
 Alpha  occ. eigenvalues --   -0.57018  -0.56888  -0.56261  -0.56175  -0.56107
 Alpha  occ. eigenvalues --   -0.56094  -0.56017  -0.55829  -0.55751  -0.55379
 Alpha  occ. eigenvalues --   -0.55103  -0.54965  -0.54923  -0.54833  -0.54742
 Alpha  occ. eigenvalues --   -0.54579  -0.54502  -0.54245  -0.54115  -0.54012
 Alpha  occ. eigenvalues --   -0.53964  -0.53879  -0.53714  -0.53448  -0.53237
 Alpha  occ. eigenvalues --   -0.53005  -0.52802  -0.52552  -0.52491  -0.52478
 Alpha  occ. eigenvalues --   -0.52334  -0.52078  -0.51972  -0.51889  -0.51865
 Alpha  occ. eigenvalues --   -0.51757  -0.51737  -0.51485  -0.51415  -0.51376
 Alpha  occ. eigenvalues --   -0.51039  -0.50830  -0.50751  -0.50697  -0.50621
 Alpha  occ. eigenvalues --   -0.50509  -0.50442  -0.50342  -0.50233  -0.50063
 Alpha  occ. eigenvalues --   -0.49816  -0.49763  -0.49686  -0.49644  -0.49526
 Alpha  occ. eigenvalues --   -0.49485  -0.49427  -0.49345  -0.49324  -0.49143
 Alpha  occ. eigenvalues --   -0.49021  -0.48998  -0.48853  -0.48682  -0.48435
 Alpha  occ. eigenvalues --   -0.48391  -0.48100  -0.48092  -0.47952  -0.47884
 Alpha  occ. eigenvalues --   -0.47473  -0.47304  -0.47147  -0.46744  -0.46055
 Alpha  occ. eigenvalues --   -0.45741  -0.45644  -0.45357  -0.45092  -0.44968
 Alpha  occ. eigenvalues --   -0.44855  -0.44501  -0.44248  -0.43972  -0.43518
 Alpha  occ. eigenvalues --   -0.43058  -0.42956  -0.42436  -0.42240  -0.42108
 Alpha  occ. eigenvalues --   -0.41696  -0.40621  -0.40250  -0.40155  -0.39929
 Alpha  occ. eigenvalues --   -0.38482  -0.38202  -0.38070  -0.37997  -0.36628
 Alpha  occ. eigenvalues --   -0.35681  -0.35336  -0.34601  -0.34503  -0.34342
 Alpha  occ. eigenvalues --   -0.34101  -0.34005
 Alpha virt. eigenvalues --    0.03023   0.03176   0.03351   0.03457   0.10937
 Alpha virt. eigenvalues --    0.11056   0.11374   0.11450   0.11487   0.12163
 Alpha virt. eigenvalues --    0.12225   0.12932   0.13569   0.13992   0.14581

 Mulliken charges:
               1
     1  O   -0.536478
     2  C    0.825008
     3  N   -0.563537
     4  C   -0.063288
     5  C   -0.216392
     6  C   -0.263730
     7  C    0.550236
     8  F   -0.267587
     9  F   -0.290905
    10  C    0.765092
    11  F   -0.265941
    12  F   -0.258734
    13  O   -0.512759
    14  C    0.987161
    15  F   -0.247670
    16  F   -0.248440
    17  F   -0.247592
    18  C    0.819711
    19  O   -0.527589
    20  N   -0.570663
    21  C   -0.051139
    22  C   -0.053500
    23  N   -0.575569
    24  C    0.823949
    25  O   -0.529622
    26  N   -0.561211
    27  C   -0.062698
    28  C   -0.212300
    29  C   -0.261810
    30  C    0.551150
    31  F   -0.290000
    32  F   -0.266484
    33  C    0.757315
    34  F   -0.266141
    35  F   -0.266842
    36  O   -0.511106
    37  C    0.992512
    38  F   -0.242469
    39  F   -0.247516
    40  F   -0.249631
    41  C    0.818435
    42  O   -0.530098
    43  N   -0.572082
    44  C   -0.058686
    45  C   -0.204710
    46  C   -0.265069
    47  C    0.544489
    48  F   -0.279958
    49  F   -0.281160
    50  C    0.773289
    51  F   -0.264390
    52  F   -0.267773
    53  O   -0.515565
    54  C    0.986444
    55  F   -0.246602
    56  F   -0.248367
    57  F   -0.247141
    58  C    0.821628
    59  O   -0.534696
    60  C    0.814787
    61  O   -0.529840
    62  N   -0.566169
    63  C   -0.055769
    64  C   -0.210608
    65  C   -0.277655
    66  C    0.562729
    67  F   -0.269828
    68  F   -0.289710
    69  C    0.726924
    70  F   -0.260376
    71  F   -0.263650
    72  O   -0.505468
    73  C    1.007659
    74  F   -0.250749
    75  F   -0.249434
    76  F   -0.243570
    77  H    0.148410
    78  H    0.158532
    79  H    0.131163
    80  H    0.133898
    81  H    0.147711
    82  H    0.139992
    83  H    0.161040
    84  H    0.160572
    85  H    0.162886
    86  H    0.159613
    87  H    0.156867
    88  H    0.151135
    89  H    0.129873
    90  H    0.132006
    91  H    0.137343
    92  H    0.147989
    93  H    0.154564
    94  H    0.148995
    95  H    0.128501
    96  H    0.136175
    97  H    0.148939
    98  H    0.148037
    99  H    0.147670
   100  H    0.149059
   101  H    0.139482
   102  H    0.130485
   103  H    0.146929
   104  H    0.152083
 Sum of Mulliken charges =   0.00000

 Dipole moment (field-independent basis, Debye):
    X=             -1.6526    Y=              1.9865    Z=             -3.3272  Tot=              4.2128
 Quadrupole moment (field-independent basis, Debye-Ang):
   XX=           -475.2705   YY=           -410.6264   ZZ=           -449.6662
   XY=             26.9520   XZ=            -15.3373   YZ=             -3.2109

 Normal termination of Gaussian 09 at Sun Feb  2 11:52:09 2025.
