 Gaussian 09, Revision D.01,
 Gaussian 09:  ES64L-G09RevD.01 24-Apr-2013

 ----------------------------------------------------------------------
 #p CAM-B3LYP/6-31G(d,p) SCRF=(PCM,Solvent=Generic,Read) NoSymm out=wfn
 ----------------------------------------------------------------------

 ------------------
 Title A603415622_0
 ------------------
 Symbolic Z-matrix:
 Charge =  0 Multiplicity = 1

                          Input orientation:
 ---------------------------------------------------------------------
 Center     Atomic      Atomic             Coordinates (Angstroms)
 Number     Number       Type             X           Y           Z
 ---------------------------------------------------------------------
      1          6           0        0.569265    5.686633   -0.646820
      2          6           0        0.302511    4.481576    0.139600
      3          6           0        0.084132    3.492367    0.785505
      4          6           0       -0.179291    2.274347    1.568691
      5          7           0       -0.122318    1.100033    0.705091
      6          6           0        1.095427    0.490086    0.511347
      7          8           0        2.103234    0.866460    1.101415
      8          7           0        1.128802   -0.564774   -0.356147
      9          6           0        2.343719   -1.360996   -0.509805
     10          9           0        2.312174   -2.351855    0.428440
     11          9           0        2.242693   -2.018541   -1.711447
     12          6           0        3.775506   -0.733501   -0.518116
     13          9           0        4.663771   -1.713058   -0.909596
     14          8           0        4.338234   -0.207615    0.682402
     15          6           0        4.354291   -1.125956    1.745236
     16          9           0        4.745010   -2.345925    1.341728
     17          9           0        5.219962   -0.685367    2.678732
     18          9           0        3.133316   -1.209504    2.304046
     19          6           0        3.788827    0.319378   -1.627254
     20          9           0        3.480511   -0.205897   -2.836120
     21          9           0        2.903848    1.320512   -1.414424
     22          9           0        5.009095    0.896363   -1.753468
     23          6           0       -0.047685   -1.194897   -0.704318
     24          8           0       -0.109083   -2.397500   -0.941262
     25          7           0       -1.169639   -0.405798   -0.729919
     26          6           0       -2.395522   -0.988257   -1.263117
     27          9           0       -2.083985   -1.649068   -2.415860
     28          9           0       -3.202554    0.025241   -1.692876
     29          6           0       -3.183024   -1.921323   -0.303490
     30          9           0       -2.445369   -3.042058   -0.055282
     31          8           0       -3.337363   -1.287336    0.971278
     32          6           0       -4.244514   -1.947769    1.813636
     33          9           0       -4.039926   -3.273247    1.801550
     34          9           0       -5.498338   -1.665801    1.427152
     35          9           0       -4.064945   -1.493189    3.067860
     36          6           0       -4.460895   -2.299278   -1.066745
     37          9           0       -4.210754   -2.811543   -2.291142
     38          9           0       -5.175232   -3.240603   -0.403019
     39          9           0       -5.282189   -1.238202   -1.232244
     40          6           0       -1.288493    0.674381    0.106267
     41          8           0       -2.371050    1.204761    0.348264
     42          1           0        1.588779    5.673778   -1.043903
     43          1           0       -0.123154    5.761250   -1.490745
     44          1           0        0.454917    6.585068   -0.032831
     45          1           0        0.558979    2.182197    2.373200
     46          1           0       -1.161679    2.344427    2.048512
 ---------------------------------------------------------------------

 SCF Done:  E(RCAM-B3LYP) =  -2911.19967907     A.U. after   13 cycles

 Alpha  occ. eigenvalues --  -24.83807 -24.83759 -24.83668 -24.83588 -24.83494
 Alpha  occ. eigenvalues --  -24.83450 -24.83247 -24.83153 -24.83144 -24.83122
 Alpha  occ. eigenvalues --  -24.83090 -24.82996 -24.82962 -24.82855 -24.82853
 Alpha  occ. eigenvalues --  -24.82714 -24.82676 -24.82649 -19.33237 -19.32364
 Alpha  occ. eigenvalues --  -19.25370 -19.24337 -19.24160 -14.53502 -14.53202
 Alpha  occ. eigenvalues --  -14.51272 -10.59760 -10.59173 -10.55563 -10.55525
 Alpha  occ. eigenvalues --  -10.53927 -10.53714 -10.49509 -10.49214 -10.47313
 Alpha  occ. eigenvalues --  -10.46222 -10.46094 -10.34354 -10.27957 -10.26962
 Alpha  occ. eigenvalues --  -10.26097  -1.43404  -1.42629  -1.41982  -1.41872
 Alpha  occ. eigenvalues --   -1.39329  -1.39096  -1.35769  -1.35110  -1.33723
 Alpha  occ. eigenvalues --   -1.33455  -1.33012  -1.32908  -1.32832  -1.32685
 Alpha  occ. eigenvalues --   -1.32427  -1.32257  -1.31820  -1.31675  -1.23943
 Alpha  occ. eigenvalues --   -1.20812  -1.20142  -1.18689  -1.18238  -1.10577
 Alpha  occ. eigenvalues --   -1.08853  -1.07512  -0.94123  -0.93467  -0.89115
 Alpha  occ. eigenvalues --   -0.86153  -0.84790  -0.84522  -0.82262  -0.80858
 Alpha  occ. eigenvalues --   -0.80235  -0.79699  -0.77715  -0.75747  -0.75529
 Alpha  occ. eigenvalues --   -0.75198  -0.73530  -0.72976  -0.72063  -0.71861
 Alpha  occ. eigenvalues --   -0.70604  -0.70262  -0.70032  -0.69603  -0.69058
 Alpha  occ. eigenvalues --   -0.68666  -0.67705  -0.67640  -0.67260  -0.66821
 Alpha  occ. eigenvalues --   -0.66526  -0.66117  -0.65281  -0.64535  -0.63143
 Alpha  occ. eigenvalues --   -0.60424  -0.60081  -0.60040  -0.58577  -0.57711
 Alpha  occ. eigenvalues --   -0.57610  -0.57253  -0.56796  -0.56630  -0.56335
 Alpha  occ. eigenvalues --   -0.56302  -0.56091  -0.55838  -0.55728  -0.55260
 Alpha  occ. eigenvalues --   -0.55113  -0.54926  -0.54847  -0.54635  -0.54266
 Alpha  occ. eigenvalues --   -0.53878  -0.53719  -0.53359  -0.53230  -0.52847
 Alpha  occ. eigenvalues --   -0.52489  -0.52238  -0.52126  -0.52045  -0.51850
 Alpha  occ. eigenvalues --   -0.51439  -0.51084  -0.50982  -0.50887  -0.50701
 Alpha  occ. eigenvalues --   -0.50511  -0.50302  -0.50192  -0.50005  -0.49792
 Alpha  occ. eigenvalues --   -0.49705  -0.49605  -0.49332  -0.49082  -0.48864
 Alpha  occ. eigenvalues --   -0.48685  -0.48464  -0.46046  -0.45979  -0.44811
 Alpha  occ. eigenvalues --   -0.44084  -0.41429  -0.40272  -0.39578  -0.38494
 Alpha  occ. eigenvalues --   -0.37703  -0.36522  -0.33126  -0.32379
 Alpha virt. eigenvalues --   -0.00304   0.00265   0.05009   0.05803   0.06935
 Alpha virt. eigenvalues --    0.08591   0.09533   0.10391   0.11372   0.12963
 Alpha virt. eigenvalues --    0.14957   0.15627   0.16478   0.16846   0.17215

 Mulliken charges:
               1
     1  C   -0.410448
     2  C   -0.013384
     3  C    0.037556
     4  C   -0.176922
     5  N   -0.581784
     6  C    0.853007
     7  O   -0.507374
     8  N   -0.625717
     9  C    0.776900
    10  F   -0.261239
    11  F   -0.270630
    12  C    0.414782
    13  F   -0.274411
    14  O   -0.488947
    15  C    0.999710
    16  F   -0.246032
    17  F   -0.241689
    18  F   -0.245787
    19  C    0.807069
    20  F   -0.243390
    21  F   -0.239953
    22  F   -0.248622
    23  C    0.826345
    24  O   -0.461174
    25  N   -0.645290
    26  C    0.761409
    27  F   -0.258459
    28  F   -0.252138
    29  C    0.438837
    30  F   -0.252532
    31  O   -0.508206
    32  C    0.996873
    33  F   -0.241919
    34  F   -0.242433
    35  F   -0.239928
    36  C    0.813128
    37  F   -0.243305
    38  F   -0.259185
    39  F   -0.245670
    40  C    0.853378
    41  O   -0.495963
    42  H    0.153915
    43  H    0.153479
    44  H    0.155290
    45  H    0.189801
    46  H    0.191055
 Sum of Mulliken charges =   0.00000

 Dipole moment (field-independent basis, Debye):
    X=             -0.0495    Y=              3.3333    Z=              0.6729  Tot=              3.4009
 Quadrupole moment (field-independent basis, Debye-Ang):
   XX=           -232.5179   YY=           -211.0759   ZZ=           -214.0143
   XY=              3.4149   XZ=             -3.6361   YZ=             -6.1425

 Normal termination of Gaussian 09 at Sun Mar  3 18:23:03 2024.
