 Gaussian 09, Revision D.01,
 Gaussian 09:  ES64L-G09RevD.01 24-Apr-2013

 ----------------------------------------------------------------------
 #p CAM-B3LYP/6-31G(d,p) SCRF=(PCM,Solvent=Generic,Read) NoSymm out=wfn
 ----------------------------------------------------------------------

 -------------------
 Title A603415622_p1
 -------------------
 Symbolic Z-matrix:
 Charge =  1 Multiplicity = 2

                          Input orientation:
 ---------------------------------------------------------------------
 Center     Atomic      Atomic             Coordinates (Angstroms)
 Number     Number       Type             X           Y           Z
 ---------------------------------------------------------------------
      1          6           0        0.569265    5.686633   -0.646820
      2          6           0        0.302511    4.481576    0.139600
      3          6           0        0.084132    3.492367    0.785505
      4          6           0       -0.179291    2.274347    1.568691
      5          7           0       -0.122318    1.100033    0.705091
      6          6           0        1.095427    0.490086    0.511347
      7          8           0        2.103234    0.866460    1.101415
      8          7           0        1.128802   -0.564774   -0.356147
      9          6           0        2.343719   -1.360996   -0.509805
     10          9           0        2.312174   -2.351855    0.428440
     11          9           0        2.242693   -2.018541   -1.711447
     12          6           0        3.775506   -0.733501   -0.518116
     13          9           0        4.663771   -1.713058   -0.909596
     14          8           0        4.338234   -0.207615    0.682402
     15          6           0        4.354291   -1.125956    1.745236
     16          9           0        4.745010   -2.345925    1.341728
     17          9           0        5.219962   -0.685367    2.678732
     18          9           0        3.133316   -1.209504    2.304046
     19          6           0        3.788827    0.319378   -1.627254
     20          9           0        3.480511   -0.205897   -2.836120
     21          9           0        2.903848    1.320512   -1.414424
     22          9           0        5.009095    0.896363   -1.753468
     23          6           0       -0.047685   -1.194897   -0.704318
     24          8           0       -0.109083   -2.397500   -0.941262
     25          7           0       -1.169639   -0.405798   -0.729919
     26          6           0       -2.395522   -0.988257   -1.263117
     27          9           0       -2.083985   -1.649068   -2.415860
     28          9           0       -3.202554    0.025241   -1.692876
     29          6           0       -3.183024   -1.921323   -0.303490
     30          9           0       -2.445369   -3.042058   -0.055282
     31          8           0       -3.337363   -1.287336    0.971278
     32          6           0       -4.244514   -1.947769    1.813636
     33          9           0       -4.039926   -3.273247    1.801550
     34          9           0       -5.498338   -1.665801    1.427152
     35          9           0       -4.064945   -1.493189    3.067860
     36          6           0       -4.460895   -2.299278   -1.066745
     37          9           0       -4.210754   -2.811543   -2.291142
     38          9           0       -5.175232   -3.240603   -0.403019
     39          9           0       -5.282189   -1.238202   -1.232244
     40          6           0       -1.288493    0.674381    0.106267
     41          8           0       -2.371050    1.204761    0.348264
     42          1           0        1.588779    5.673778   -1.043903
     43          1           0       -0.123154    5.761250   -1.490745
     44          1           0        0.454917    6.585068   -0.032831
     45          1           0        0.558979    2.182197    2.373200
     46          1           0       -1.161679    2.344427    2.048512
 ---------------------------------------------------------------------

 SCF Done:  E(UCAM-B3LYP) =  -2910.90432875     A.U. after   18 cycles

 Alpha  occ. eigenvalues --  -24.86206 -24.85364 -24.85340 -24.85304 -24.85206
 Alpha  occ. eigenvalues --  -24.85175 -24.85061 -24.85018 -24.84878 -24.84873
 Alpha  occ. eigenvalues --  -24.84775 -24.84751 -24.84708 -24.84546 -24.84536
 Alpha  occ. eigenvalues --  -24.84516 -24.84422 -24.84193 -19.35002 -19.34307
 Alpha  occ. eigenvalues --  -19.28413 -19.28231 -19.28028 -14.56581 -14.56540
 Alpha  occ. eigenvalues --  -14.56264 -10.61290 -10.60900 -10.57635 -10.57008
 Alpha  occ. eigenvalues --  -10.56192 -10.55967 -10.51515 -10.51026 -10.50331
 Alpha  occ. eigenvalues --  -10.50173 -10.50007 -10.46344 -10.45531 -10.43547
 Alpha  occ. eigenvalues --  -10.37287  -1.44864  -1.44425  -1.43972  -1.43333
 Alpha  occ. eigenvalues --   -1.41391  -1.41144  -1.37453  -1.36916  -1.35141
 Alpha  occ. eigenvalues --   -1.35116  -1.34937  -1.34671  -1.34568  -1.34392
 Alpha  occ. eigenvalues --   -1.34307  -1.33689  -1.33635  -1.33611  -1.27548
 Alpha  occ. eigenvalues --   -1.22795  -1.22392  -1.21871  -1.21739  -1.14012
 Alpha  occ. eigenvalues --   -1.12464  -1.12033  -1.04345  -0.96569  -0.95444
 Alpha  occ. eigenvalues --   -0.94651  -0.90508  -0.88171  -0.87548  -0.84031
 Alpha  occ. eigenvalues --   -0.83083  -0.82618  -0.82582  -0.79927  -0.78688
 Alpha  occ. eigenvalues --   -0.77471  -0.75999  -0.74630  -0.74010  -0.73827
 Alpha  occ. eigenvalues --   -0.72512  -0.72173  -0.71977  -0.71310  -0.71044
 Alpha  occ. eigenvalues --   -0.70839  -0.70179  -0.69637  -0.69504  -0.69217
 Alpha  occ. eigenvalues --   -0.68659  -0.68285  -0.68127  -0.67330  -0.66582
 Alpha  occ. eigenvalues --   -0.66408  -0.64883  -0.63661  -0.63049  -0.61813
 Alpha  occ. eigenvalues --   -0.61668  -0.60511  -0.59669  -0.59481  -0.59234
 Alpha  occ. eigenvalues --   -0.58921  -0.58809  -0.58601  -0.58589  -0.58304
 Alpha  occ. eigenvalues --   -0.58243  -0.57970  -0.57790  -0.57506  -0.57178
 Alpha  occ. eigenvalues --   -0.57026  -0.56801  -0.56716  -0.56343  -0.55966
 Alpha  occ. eigenvalues --   -0.55560  -0.55224  -0.55173  -0.54561  -0.54185
 Alpha  occ. eigenvalues --   -0.54085  -0.53973  -0.53785  -0.53598  -0.53193
 Alpha  occ. eigenvalues --   -0.52934  -0.52737  -0.52578  -0.52220  -0.52081
 Alpha  occ. eigenvalues --   -0.51913  -0.51543  -0.51489  -0.50792  -0.50622
 Alpha  occ. eigenvalues --   -0.50505  -0.50350  -0.49416  -0.48511  -0.48011
 Alpha  occ. eigenvalues --   -0.47825  -0.46595  -0.46183  -0.44403  -0.43912
 Alpha  occ. eigenvalues --   -0.42827  -0.42194  -0.41593  -0.39904
 Alpha virt. eigenvalues --   -0.04717  -0.03993  -0.03541  -0.02815   0.02858
 Alpha virt. eigenvalues --    0.03425   0.04309   0.06988   0.08275   0.09750
 Alpha virt. eigenvalues --    0.10461   0.10649   0.11757   0.13099   0.14235

  Beta  occ. eigenvalues --  -24.86206 -24.85364 -24.85340 -24.85304 -24.85206
  Beta  occ. eigenvalues --  -24.85175 -24.85061 -24.85018 -24.84878 -24.84873
  Beta  occ. eigenvalues --  -24.84775 -24.84751 -24.84708 -24.84546 -24.84536
  Beta  occ. eigenvalues --  -24.84516 -24.84422 -24.84193 -19.35002 -19.34307
  Beta  occ. eigenvalues --  -19.28405 -19.28219 -19.28027 -14.56581 -14.56545
  Beta  occ. eigenvalues --  -14.56264 -10.61290 -10.60900 -10.57635 -10.57008
  Beta  occ. eigenvalues --  -10.56192 -10.55967 -10.51515 -10.51026 -10.50330
  Beta  occ. eigenvalues --  -10.50173 -10.50007 -10.45678 -10.44834 -10.43544
  Beta  occ. eigenvalues --  -10.37277  -1.44864  -1.44425  -1.43972  -1.43333
  Beta  occ. eigenvalues --   -1.41391  -1.41144  -1.37453  -1.36916  -1.35141
  Beta  occ. eigenvalues --   -1.35116  -1.34937  -1.34671  -1.34568  -1.34392
  Beta  occ. eigenvalues --   -1.34307  -1.33689  -1.33635  -1.33611  -1.27542
  Beta  occ. eigenvalues --   -1.22788  -1.22389  -1.21863  -1.21733  -1.13999
  Beta  occ. eigenvalues --   -1.12389  -1.12026  -1.01245  -0.96429  -0.95435
  Beta  occ. eigenvalues --   -0.94335  -0.89525  -0.88062  -0.87541  -0.84030
  Beta  occ. eigenvalues --   -0.83034  -0.82591  -0.82524  -0.79888  -0.78653
  Beta  occ. eigenvalues --   -0.77471  -0.75981  -0.74629  -0.74009  -0.73823
  Beta  occ. eigenvalues --   -0.72481  -0.72173  -0.71958  -0.71307  -0.70995
  Beta  occ. eigenvalues --   -0.70639  -0.70151  -0.69635  -0.69415  -0.69200
  Beta  occ. eigenvalues --   -0.68567  -0.68178  -0.68122  -0.67311  -0.66566
  Beta  occ. eigenvalues --   -0.66314  -0.64480  -0.63245  -0.61811  -0.61677
  Beta  occ. eigenvalues --   -0.60593  -0.60345  -0.59561  -0.59010  -0.58839
  Beta  occ. eigenvalues --   -0.58792  -0.58599  -0.58564  -0.58292  -0.58253
  Beta  occ. eigenvalues --   -0.57969  -0.57804  -0.57590  -0.57429  -0.57149
  Beta  occ. eigenvalues --   -0.56903  -0.56718  -0.56662  -0.56290  -0.55951
  Beta  occ. eigenvalues --   -0.55535  -0.55222  -0.55091  -0.54547  -0.54180
  Beta  occ. eigenvalues --   -0.54082  -0.53970  -0.53776  -0.53593  -0.53184
  Beta  occ. eigenvalues --   -0.52922  -0.52729  -0.52571  -0.52218  -0.52080
  Beta  occ. eigenvalues --   -0.51912  -0.51541  -0.51488  -0.50789  -0.50599
  Beta  occ. eigenvalues --   -0.50505  -0.50349  -0.48215  -0.47872  -0.47378
  Beta  occ. eigenvalues --   -0.46598  -0.46164  -0.44411  -0.43862  -0.42749
  Beta  occ. eigenvalues --   -0.42158  -0.41582  -0.39891
  Beta virt. eigenvalues --   -0.26636  -0.03670  -0.03501  -0.02587   0.00653
  Beta virt. eigenvalues --    0.02866   0.03466   0.04362   0.07008   0.08397
  Beta virt. eigenvalues --    0.10152   0.10652   0.10694   0.12033   0.13301

 Mulliken charges and spin densities:
               1          2
     1  C   -0.433449   0.000024
     2  C    0.247810   0.411103
     3  C    0.294973   0.454738
     4  C   -0.208932  -0.007490
     5  N   -0.595681  -0.000177
     6  C    0.864559  -0.000368
     7  O   -0.497725   0.002512
     8  N   -0.628149   0.000189
     9  C    0.779113  -0.000021
    10  F   -0.255889  -0.000002
    11  F   -0.265179   0.000026
    12  C    0.415679   0.000017
    13  F   -0.268451   0.000000
    14  O   -0.491549   0.000035
    15  C    1.001818  -0.000001
    16  F   -0.242583   0.000001
    17  F   -0.239463   0.000001
    18  F   -0.247275   0.000002
    19  C    0.807892  -0.000002
    20  F   -0.239846   0.000000
    21  F   -0.247977   0.000005
    22  F   -0.245267   0.000000
    23  C    0.834257  -0.000051
    24  O   -0.442943   0.000098
    25  N   -0.647945   0.000099
    26  C    0.762166  -0.000017
    27  F   -0.253236   0.000019
    28  F   -0.250825   0.000048
    29  C    0.440295  -0.000002
    30  F   -0.249614   0.000002
    31  O   -0.513310  -0.000002
    32  C    0.998547  -0.000001
    33  F   -0.239375   0.000000
    34  F   -0.240588   0.000000
    35  F   -0.239764   0.000000
    36  C    0.816328  -0.000001
    37  F   -0.241396   0.000000
    38  F   -0.256271  -0.000001
    39  F   -0.245374   0.000000
    40  C    0.865739  -0.000550
    41  O   -0.484057   0.003799
    42  H    0.251467   0.041875
    43  H    0.247999   0.034375
    44  H    0.233121  -0.001083
    45  H    0.275185   0.030653
    46  H    0.275164   0.030146
 Sum of Mulliken charges =   1.00000   1.00000

 Dipole moment (field-independent basis, Debye):
    X=              0.9943    Y=             21.0298    Z=              2.2343  Tot=             21.1715
 Quadrupole moment (field-independent basis, Debye-Ang):
   XX=           -223.0928   YY=           -123.0985   ZZ=           -205.6092
   XY=              9.0604   XZ=             -4.0688   YZ=             -3.4669

 Normal termination of Gaussian 09 at Sun Mar  3 18:23:41 2024.
