 Gaussian 09, Revision D.01,
 Gaussian 09:  ES64L-G09RevD.01 24-Apr-2013

 ----------------------------------------------------------------------
 #p CAM-B3LYP/6-31G(d,p) SCRF=(PCM,Solvent=Generic,Read) NoSymm out=wfn
 ----------------------------------------------------------------------

 ---------------------
 Title AEPYridine0_neu
 ---------------------
 Symbolic Z-matrix:
 Charge =  0 Multiplicity = 1

                          Input orientation:
 ---------------------------------------------------------------------
 Center     Atomic      Atomic             Coordinates (Angstroms)
 Number     Number       Type             X           Y           Z
 ---------------------------------------------------------------------
      1          9           0       -2.921027    3.384765    1.959979
      2          6           0       -3.203621    2.399165    1.087524
      3          9           0       -3.579442    2.986343   -0.069161
      4          6           0       -4.245810    1.416636    1.589033
      5          9           0       -4.062889    1.200592    2.924538
      6          9           0       -5.516576    1.829004    1.457296
      7          6           0       -3.881882    0.164631    0.826843
      8          9           0       -4.362969   -0.925425    1.487893
      9          6           0       -4.432002    0.180962   -0.594978
     10          9           0       -5.700782    0.687595   -0.581431
     11          6           0       -4.476780   -1.219599   -1.218401
     12          8           0       -5.494377   -1.985836   -0.768142
     13          8           0       -3.710891   -1.671412   -2.055700
     14          9           0       -3.718961    1.048745   -1.361082
     15          6           0       -2.359301    0.277690    0.969891
     16          9           0       -2.053732    0.014111    2.275862
     17          6           0       -1.525048   -0.642081    0.083705
     18          9           0       -1.663999   -0.246165   -1.215771
     19          6           0       -0.047329   -0.605164    0.496490
     20          7           0        0.741004    0.254087   -0.256057
     21          6           0        2.167243    0.383450   -0.019339
     22          6           0        2.961909   -0.784967   -0.608502
     23          6           0        4.439043   -0.619991   -0.388136
     24          6           0        5.028752   -0.991778    0.816994
     25          7           0        6.344571   -0.849962    1.091362
     26          6           0        7.113454   -0.314300    0.120195
     27          6           0        6.626378    0.090067   -1.111344
     28          6           0        5.266867   -0.063845   -1.366252
     29          8           0        0.411569   -1.271252    1.422179
     30          9           0       -2.037963   -1.903156    0.148826
     31          8           0       -2.010457    1.667732    0.797394
     32          1           0       -5.412774   -2.838371   -1.248345
     33          1           0        0.353739    0.644654   -1.110740
     34          1           0        2.480235    1.332006   -0.469719
     35          1           0        2.333260    0.456838    1.061955
     36          1           0        2.634209   -1.735965   -0.169966
     37          1           0        2.753964   -0.872201   -1.682846
     38          1           0        4.441561   -1.426548    1.622859
     39          1           0        8.166695   -0.214791    0.366261
     40          1           0        7.291076    0.515256   -1.854784
     41          1           0        4.863082    0.248478   -2.325743
 ---------------------------------------------------------------------

 SCF Done:  E(RCAM-B3LYP) =  -1985.73942407     A.U. after   13 cycles

 Alpha  occ. eigenvalues --  -24.82975 -24.82885 -24.82846 -24.82743 -24.82667
 Alpha  occ. eigenvalues --  -24.82559 -24.82433 -24.82293 -24.82275 -24.81706
 Alpha  occ. eigenvalues --  -19.31949 -19.30076 -19.25300 -19.22202 -14.45809
 Alpha  occ. eigenvalues --  -14.40626 -10.52762 -10.49619 -10.48701 -10.48126
 Alpha  occ. eigenvalues --  -10.47197 -10.44408 -10.42953 -10.40244 -10.31166
 Alpha  occ. eigenvalues --  -10.29606 -10.29579 -10.28315 -10.28044 -10.27298
 Alpha  occ. eigenvalues --  -10.27293  -1.40439  -1.38495  -1.37997  -1.37813
 Alpha  occ. eigenvalues --   -1.35538  -1.33998  -1.32367  -1.32008  -1.31446
 Alpha  occ. eigenvalues --   -1.30944  -1.22056  -1.19949  -1.14193  -1.12233
 Alpha  occ. eigenvalues --   -1.02297  -1.01867  -0.97391  -0.91613  -0.90459
 Alpha  occ. eigenvalues --   -0.87886  -0.86549  -0.83900  -0.81455  -0.77710
 Alpha  occ. eigenvalues --   -0.76780  -0.74401  -0.73663  -0.71303  -0.70822
 Alpha  occ. eigenvalues --   -0.70803  -0.69679  -0.68530  -0.67872  -0.67346
 Alpha  occ. eigenvalues --   -0.66980  -0.66322  -0.65837  -0.65320  -0.64507
 Alpha  occ. eigenvalues --   -0.63912  -0.63619  -0.62599  -0.59404  -0.58384
 Alpha  occ. eigenvalues --   -0.57946  -0.56917  -0.56518  -0.56409  -0.56167
 Alpha  occ. eigenvalues --   -0.55532  -0.55177  -0.54741  -0.54303  -0.54061
 Alpha  occ. eigenvalues --   -0.53313  -0.53108  -0.52772  -0.52744  -0.52378
 Alpha  occ. eigenvalues --   -0.52031  -0.51501  -0.51392  -0.50681  -0.50428
 Alpha  occ. eigenvalues --   -0.50215  -0.49620  -0.49543  -0.49374  -0.48967
 Alpha  occ. eigenvalues --   -0.48259  -0.47407  -0.47076  -0.46721  -0.46216
 Alpha  occ. eigenvalues --   -0.45112  -0.44913  -0.43760  -0.43002  -0.42457
 Alpha  occ. eigenvalues --   -0.41345  -0.40856  -0.37606  -0.35022  -0.34412
 Alpha  occ. eigenvalues --   -0.33475  -0.31974  -0.30970
 Alpha virt. eigenvalues --   -0.00299   0.01848   0.02219   0.03835   0.05090
 Alpha virt. eigenvalues --    0.08396   0.10174   0.11539   0.12576   0.13370
 Alpha virt. eigenvalues --    0.14544   0.15209   0.16712   0.17477   0.18133

 Mulliken charges:
               1
     1  F   -0.243433
     2  C    0.767460
     3  F   -0.244018
     4  C    0.521193
     5  F   -0.270133
     6  F   -0.251565
     7  C    0.184664
     8  F   -0.284660
     9  C    0.586928
    10  F   -0.268776
    11  C    0.540360
    12  O   -0.473745
    13  O   -0.445036
    14  F   -0.260618
    15  C    0.503324
    16  F   -0.269612
    17  C    0.561360
    18  F   -0.272874
    19  C    0.532502
    20  N   -0.539502
    21  C   -0.040891
    22  C   -0.245535
    23  C    0.081552
    24  C    0.050059
    25  N   -0.442758
    26  C    0.078324
    27  C   -0.100040
    28  C   -0.095777
    29  O   -0.500720
    30  F   -0.271983
    31  O   -0.507972
    32  H    0.361340
    33  H    0.292262
    34  H    0.125915
    35  H    0.149980
    36  H    0.140629
    37  H    0.109500
    38  H    0.117600
    39  H    0.110043
    40  H    0.108320
    41  H    0.106339
 Sum of Mulliken charges =   0.00000

 Dipole moment (field-independent basis, Debye):
    X=             -0.6363    Y=              0.9814    Z=             -4.9155  Tot=              5.0528
 Quadrupole moment (field-independent basis, Debye-Ang):
   XX=           -165.1664   YY=           -167.4428   ZZ=           -174.6820
   XY=             17.9700   XZ=            -12.1384   YZ=              3.2376

 Normal termination of Gaussian 09 at Mon Feb  3 21:36:55 2025.
