 Gaussian 09, Revision D.01,
 Gaussian 09:  ES64L-G09RevD.01 24-Apr-2013

 ----------------------------------------------------------------------
 #p CAM-B3LYP/6-31G(d,p) SCRF=(PCM,Solvent=Generic,Read) NoSymm out=wfn
 ----------------------------------------------------------------------

 -------------------
 Title A1374950781_0
 -------------------
 Symbolic Z-matrix:
 Charge =  0 Multiplicity = 1

                          Input orientation:
 ---------------------------------------------------------------------
 Center     Atomic      Atomic             Coordinates (Angstroms)
 Number     Number       Type             X           Y           Z
 ---------------------------------------------------------------------
      1          8           0        1.872225   -0.599400   -2.358021
      2          6           0        0.966090   -0.716797   -1.542026
      3          7           0       -0.114821   -1.528674   -1.787125
      4          9           0       -0.064252   -2.391792   -2.862215
      5          6           0       -1.028882   -1.809090   -0.735022
      6          7           0       -1.323155   -0.593818   -0.043381
      7          6           0       -2.536777   -0.554526    0.764256
      8          9           0       -2.207677   -0.920617    2.031966
      9          9           0       -3.332153   -1.572774    0.326878
     10          6           0       -3.356654    0.771783    0.764162
     11          9           0       -2.805016    1.639744    1.675739
     12          8           0       -3.292384    1.506725   -0.467901
     13          6           0       -4.069258    0.971274   -1.503980
     14          9           0       -3.848762   -0.347384   -1.614589
     15          9           0       -3.714784    1.561527   -2.658296
     16          9           0       -5.367778    1.205224   -1.271498
     17          6           0       -4.752158    0.428750    1.296861
     18          9           0       -5.416024   -0.438284    0.499269
     19          9           0       -4.706536   -0.125975    2.529013
     20          9           0       -5.523564    1.539314    1.388452
     21          6           0       -0.274026    0.244350    0.267929
     22          8           0       -0.446608    1.199393    1.013531
     23          7           0        0.942555   -0.052433   -0.332549
     24          6           0        2.058686    0.821894    0.010432
     25          9           0        1.860671    2.015525   -0.628109
     26          9           0        1.969055    1.114687    1.350753
     27          6           0        3.547496    0.398188   -0.191150
     28          9           0        3.869151    0.293378   -1.503211
     29          8           0        4.362793    1.479490    0.306726
     30          6           0        5.723874    1.152833    0.390578
     31          9           0        5.932014    0.429824    1.504349
     32          9           0        6.135023    0.464276   -0.684809
     33          9           0        6.436053    2.291201    0.479181
     34          6           0        3.711998   -0.943533    0.532871
     35          9           0        2.829121   -1.879512    0.110248
     36          9           0        4.942365   -1.475566    0.355582
     37          9           0        3.526234   -0.818586    1.867086
     38          1           0       -1.924698   -2.231947   -1.196731
     39          1           0       -0.579437   -2.528670   -0.042499
 ---------------------------------------------------------------------

 SCF Done:  E(RCAM-B3LYP) =  -2781.62136564     A.U. after   13 cycles

 Alpha  occ. eigenvalues --  -24.84936 -24.84776 -24.84434 -24.84172 -24.84143
 Alpha  occ. eigenvalues --  -24.84068 -24.83719 -24.83537 -24.83491 -24.83398
 Alpha  occ. eigenvalues --  -24.83280 -24.83212 -24.83165 -24.82954 -24.82856
 Alpha  occ. eigenvalues --  -24.82496 -24.82361 -24.82138 -24.82073 -19.33487
 Alpha  occ. eigenvalues --  -19.32650 -19.23745 -19.23088 -14.55435 -14.52686
 Alpha  occ. eigenvalues --  -14.50734 -10.60247 -10.59421 -10.55825 -10.55505
 Alpha  occ. eigenvalues --  -10.53180 -10.53147 -10.49256 -10.49256 -10.45893
 Alpha  occ. eigenvalues --  -10.45292 -10.38302  -1.44084  -1.43207  -1.42143
 Alpha  occ. eigenvalues --   -1.42029  -1.39806  -1.38232  -1.35938  -1.35409
 Alpha  occ. eigenvalues --   -1.35036  -1.34743  -1.33995  -1.33563  -1.33315
 Alpha  occ. eigenvalues --   -1.32989  -1.32916  -1.32642  -1.32435  -1.32203
 Alpha  occ. eigenvalues --   -1.31132  -1.21273  -1.20915  -1.20004  -1.16930
 Alpha  occ. eigenvalues --   -1.10940  -1.08118  -1.02093  -0.93539  -0.93075
 Alpha  occ. eigenvalues --   -0.86329  -0.85099  -0.82785  -0.82713  -0.80091
 Alpha  occ. eigenvalues --   -0.79101  -0.77337  -0.75611  -0.74371  -0.73502
 Alpha  occ. eigenvalues --   -0.72795  -0.71787  -0.71398  -0.71142  -0.70551
 Alpha  occ. eigenvalues --   -0.70288  -0.69882  -0.69600  -0.68952  -0.68888
 Alpha  occ. eigenvalues --   -0.68124  -0.67720  -0.67081  -0.66249  -0.65827
 Alpha  occ. eigenvalues --   -0.65076  -0.64187  -0.63690  -0.63403  -0.60503
 Alpha  occ. eigenvalues --   -0.59710  -0.59458  -0.58173  -0.57936  -0.57697
 Alpha  occ. eigenvalues --   -0.57180  -0.57154  -0.56865  -0.56556  -0.56163
 Alpha  occ. eigenvalues --   -0.56111  -0.55847  -0.55702  -0.55409  -0.54983
 Alpha  occ. eigenvalues --   -0.54619  -0.54288  -0.54121  -0.53756  -0.53702
 Alpha  occ. eigenvalues --   -0.53534  -0.53196  -0.52849  -0.52639  -0.52341
 Alpha  occ. eigenvalues --   -0.51946  -0.51833  -0.51670  -0.51345  -0.50970
 Alpha  occ. eigenvalues --   -0.50876  -0.50767  -0.50444  -0.50360  -0.50291
 Alpha  occ. eigenvalues --   -0.50054  -0.49706  -0.49587  -0.49422  -0.49075
 Alpha  occ. eigenvalues --   -0.48691  -0.48402  -0.47989  -0.45557  -0.44121
 Alpha  occ. eigenvalues --   -0.43320  -0.40025  -0.38106  -0.37920  -0.36685
 Alpha  occ. eigenvalues --   -0.35004
 Alpha virt. eigenvalues --    0.01491   0.02987   0.05096   0.05567   0.06211
 Alpha virt. eigenvalues --    0.09069   0.09777   0.12821   0.14823   0.16338
 Alpha virt. eigenvalues --    0.16793   0.18051   0.18517   0.19291   0.19868

 Mulliken charges:
               1
     1  O   -0.499764
     2  C    0.780599
     3  N   -0.135924
     4  F   -0.204060
     5  C    0.099407
     6  N   -0.609265
     7  C    0.763792
     8  F   -0.251292
     9  F   -0.274963
    10  C    0.436423
    11  F   -0.259345
    12  O   -0.497722
    13  C    0.983368
    14  F   -0.247276
    15  F   -0.235031
    16  F   -0.236432
    17  C    0.806236
    18  F   -0.251131
    19  F   -0.243825
    20  F   -0.255051
    21  C    0.857423
    22  O   -0.489934
    23  N   -0.651961
    24  C    0.773749
    25  F   -0.262611
    26  F   -0.270101
    27  C    0.415182
    28  F   -0.239278
    29  O   -0.514563
    30  C    0.995022
    31  F   -0.246622
    32  F   -0.242339
    33  F   -0.238459
    34  C    0.812412
    35  F   -0.245071
    36  F   -0.251547
    37  F   -0.242783
    38  H    0.195613
    39  H    0.177125
 Sum of Mulliken charges =   0.00000

 Dipole moment (field-independent basis, Debye):
    X=             -2.7753    Y=             -4.1470    Z=             -0.2564  Tot=              4.9966
 Quadrupole moment (field-independent basis, Debye-Ang):
   XX=           -197.0884   YY=           -191.9931   ZZ=           -203.2726
   XY=              3.5047   XZ=              9.2192   YZ=             -2.9332

 Normal termination of Gaussian 09 at Sun Mar  3 17:44:49 2024.
