 Gaussian 09, Revision D.01,
 Gaussian 09:  ES64L-G09RevD.01 24-Apr-2013

 ----------------------------------------------------------------------
 #p CAM-B3LYP/6-31G(d,p) SCRF=(PCM,Solvent=Generic,Read) NoSymm out=wfn
 ----------------------------------------------------------------------

 --------------------
 Title A1374950781_p1
 --------------------
 Symbolic Z-matrix:
 Charge =  1 Multiplicity = 2

                          Input orientation:
 ---------------------------------------------------------------------
 Center     Atomic      Atomic             Coordinates (Angstroms)
 Number     Number       Type             X           Y           Z
 ---------------------------------------------------------------------
      1          8           0        1.872225   -0.599400   -2.358021
      2          6           0        0.966090   -0.716797   -1.542026
      3          7           0       -0.114821   -1.528674   -1.787125
      4          9           0       -0.064252   -2.391792   -2.862215
      5          6           0       -1.028882   -1.809090   -0.735022
      6          7           0       -1.323155   -0.593818   -0.043381
      7          6           0       -2.536777   -0.554526    0.764256
      8          9           0       -2.207677   -0.920617    2.031966
      9          9           0       -3.332153   -1.572774    0.326878
     10          6           0       -3.356654    0.771783    0.764162
     11          9           0       -2.805016    1.639744    1.675739
     12          8           0       -3.292384    1.506725   -0.467901
     13          6           0       -4.069258    0.971274   -1.503980
     14          9           0       -3.848762   -0.347384   -1.614589
     15          9           0       -3.714784    1.561527   -2.658296
     16          9           0       -5.367778    1.205224   -1.271498
     17          6           0       -4.752158    0.428750    1.296861
     18          9           0       -5.416024   -0.438284    0.499269
     19          9           0       -4.706536   -0.125975    2.529013
     20          9           0       -5.523564    1.539314    1.388452
     21          6           0       -0.274026    0.244350    0.267929
     22          8           0       -0.446608    1.199393    1.013531
     23          7           0        0.942555   -0.052433   -0.332549
     24          6           0        2.058686    0.821894    0.010432
     25          9           0        1.860671    2.015525   -0.628109
     26          9           0        1.969055    1.114687    1.350753
     27          6           0        3.547496    0.398188   -0.191150
     28          9           0        3.869151    0.293378   -1.503211
     29          8           0        4.362793    1.479490    0.306726
     30          6           0        5.723874    1.152833    0.390578
     31          9           0        5.932014    0.429824    1.504349
     32          9           0        6.135023    0.464276   -0.684809
     33          9           0        6.436053    2.291201    0.479181
     34          6           0        3.711998   -0.943533    0.532871
     35          9           0        2.829121   -1.879512    0.110248
     36          9           0        4.942365   -1.475566    0.355582
     37          9           0        3.526234   -0.818586    1.867086
     38          1           0       -1.924698   -2.231947   -1.196731
     39          1           0       -0.579437   -2.528670   -0.042499
 ---------------------------------------------------------------------

 SCF Done:  E(UCAM-B3LYP) =  -2781.30162495     A.U. after   29 cycles

 Alpha  occ. eigenvalues --  -25.00499 -24.88473 -24.88264 -24.87887 -24.86904
 Alpha  occ. eigenvalues --  -24.86699 -24.86589 -24.86516 -24.86387 -24.86371
 Alpha  occ. eigenvalues --  -24.86132 -24.86066 -24.85836 -24.85611 -24.85437
 Alpha  occ. eigenvalues --  -24.85424 -24.85242 -24.85122 -24.85003 -19.37785
 Alpha  occ. eigenvalues --  -19.36392 -19.35477 -19.30015 -14.76978 -14.60701
 Alpha  occ. eigenvalues --  -14.58136 -10.62858 -10.61589 -10.59073 -10.58174
 Alpha  occ. eigenvalues --  -10.57892 -10.57823 -10.56968 -10.53046 -10.52500
 Alpha  occ. eigenvalues --  -10.52301 -10.48778  -1.51133  -1.46698  -1.45974
 Alpha  occ. eigenvalues --   -1.44666  -1.44660  -1.43500  -1.42623  -1.39249
 Alpha  occ. eigenvalues --   -1.38052  -1.37441  -1.36870  -1.36497  -1.36254
 Alpha  occ. eigenvalues --   -1.35814  -1.35442  -1.35279  -1.34887  -1.34764
 Alpha  occ. eigenvalues --   -1.34447  -1.31889  -1.26378  -1.23862  -1.22873
 Alpha  occ. eigenvalues --   -1.21746  -1.16423  -1.13806  -0.98631  -0.97535
 Alpha  occ. eigenvalues --   -0.95461  -0.90635  -0.88838  -0.86098  -0.85456
 Alpha  occ. eigenvalues --   -0.84463  -0.82625  -0.81737  -0.79372  -0.78812
 Alpha  occ. eigenvalues --   -0.78521  -0.76740  -0.76491  -0.74912  -0.74355
 Alpha  occ. eigenvalues --   -0.73982  -0.73743  -0.73673  -0.72884  -0.72609
 Alpha  occ. eigenvalues --   -0.72251  -0.71711  -0.71329  -0.70903  -0.70690
 Alpha  occ. eigenvalues --   -0.69663  -0.69446  -0.69286  -0.68845  -0.67762
 Alpha  occ. eigenvalues --   -0.66858  -0.65929  -0.65060  -0.63936  -0.63022
 Alpha  occ. eigenvalues --   -0.62485  -0.61475  -0.60894  -0.60443  -0.60266
 Alpha  occ. eigenvalues --   -0.60022  -0.59806  -0.59637  -0.59363  -0.59333
 Alpha  occ. eigenvalues --   -0.58591  -0.58407  -0.58322  -0.57692  -0.57668
 Alpha  occ. eigenvalues --   -0.57510  -0.57079  -0.56927  -0.56590  -0.56273
 Alpha  occ. eigenvalues --   -0.55851  -0.55600  -0.55179  -0.54497  -0.54484
 Alpha  occ. eigenvalues --   -0.54243  -0.53914  -0.53846  -0.53491  -0.53335
 Alpha  occ. eigenvalues --   -0.53054  -0.53037  -0.52843  -0.52687  -0.52240
 Alpha  occ. eigenvalues --   -0.52003  -0.51650  -0.51382  -0.51126  -0.49665
 Alpha  occ. eigenvalues --   -0.48812  -0.47814  -0.47081  -0.46478  -0.44390
 Alpha  occ. eigenvalues --   -0.43180
 Alpha virt. eigenvalues --   -0.11846  -0.07677  -0.02566   0.00869   0.02255
 Alpha virt. eigenvalues --    0.04367   0.05439   0.07260   0.08296   0.09150
 Alpha virt. eigenvalues --    0.10183   0.11971   0.13456   0.14708   0.15025

  Beta  occ. eigenvalues --  -25.00115 -24.88473 -24.88260 -24.87887 -24.86904
  Beta  occ. eigenvalues --  -24.86701 -24.86585 -24.86516 -24.86386 -24.86371
  Beta  occ. eigenvalues --  -24.86129 -24.86066 -24.85836 -24.85611 -24.85435
  Beta  occ. eigenvalues --  -24.85424 -24.85242 -24.85122 -24.85002 -19.37005
  Beta  occ. eigenvalues --  -19.36392 -19.35477 -19.30014 -14.75407 -14.60744
  Beta  occ. eigenvalues --  -14.58072 -10.62858 -10.61589 -10.59073 -10.58173
  Beta  occ. eigenvalues --  -10.57891 -10.57824 -10.57230 -10.53047 -10.52496
  Beta  occ. eigenvalues --  -10.52305 -10.48794  -1.49924  -1.46698  -1.45972
  Beta  occ. eigenvalues --   -1.44664  -1.44659  -1.43498  -1.42622  -1.39241
  Beta  occ. eigenvalues --   -1.38048  -1.37440  -1.36865  -1.36496  -1.36253
  Beta  occ. eigenvalues --   -1.35812  -1.35441  -1.35278  -1.34887  -1.34764
  Beta  occ. eigenvalues --   -1.34446  -1.30946  -1.25801  -1.23858  -1.22864
  Beta  occ. eigenvalues --   -1.20354  -1.16221  -1.12653  -0.98332  -0.97372
  Beta  occ. eigenvalues --   -0.95243  -0.90544  -0.88376  -0.86064  -0.85453
  Beta  occ. eigenvalues --   -0.84305  -0.82393  -0.81458  -0.79062  -0.78399
  Beta  occ. eigenvalues --   -0.76744  -0.76452  -0.75506  -0.74641  -0.74237
  Beta  occ. eigenvalues --   -0.73875  -0.73712  -0.73552  -0.72769  -0.72593
  Beta  occ. eigenvalues --   -0.71742  -0.71567  -0.71311  -0.70738  -0.70592
  Beta  occ. eigenvalues --   -0.69624  -0.69318  -0.69039  -0.68306  -0.66955
  Beta  occ. eigenvalues --   -0.66244  -0.65505  -0.63864  -0.63524  -0.62834
  Beta  occ. eigenvalues --   -0.62401  -0.60870  -0.60508  -0.60311  -0.60096
  Beta  occ. eigenvalues --   -0.59878  -0.59746  -0.59617  -0.59354  -0.58926
  Beta  occ. eigenvalues --   -0.58570  -0.58325  -0.58077  -0.57662  -0.57557
  Beta  occ. eigenvalues --   -0.57441  -0.56949  -0.56829  -0.56580  -0.56236
  Beta  occ. eigenvalues --   -0.55799  -0.55529  -0.55159  -0.54491  -0.54455
  Beta  occ. eigenvalues --   -0.54035  -0.53848  -0.53824  -0.53451  -0.53044
  Beta  occ. eigenvalues --   -0.53036  -0.53013  -0.52686  -0.52218  -0.52050
  Beta  occ. eigenvalues --   -0.51645  -0.51377  -0.51105  -0.49168  -0.48720
  Beta  occ. eigenvalues --   -0.47063  -0.46503  -0.46359  -0.44158  -0.43072
  Beta virt. eigenvalues --   -0.28853  -0.09974  -0.06027  -0.02244   0.00870
  Beta virt. eigenvalues --    0.02293   0.04520   0.05478   0.07556   0.08400
  Beta virt. eigenvalues --    0.09951   0.10426   0.12147   0.13668   0.14722

 Mulliken charges and spin densities:
               1          2
     1  O   -0.323834   0.309569
     2  C    0.848896  -0.149637
     3  N    0.066578   0.646543
     4  F   -0.056849   0.088185
     5  C    0.054687  -0.026043
     6  N   -0.618043   0.029767
     7  C    0.770582  -0.000681
     8  F   -0.235368   0.000220
     9  F   -0.265040   0.000064
    10  C    0.437135   0.001638
    11  F   -0.251721   0.000515
    12  O   -0.494820  -0.000111
    13  C    0.985030   0.000057
    14  F   -0.252168   0.000012
    15  F   -0.231535   0.000002
    16  F   -0.229370  -0.000001
    17  C    0.814216   0.000330
    18  F   -0.248309   0.000027
    19  F   -0.239076  -0.000007
    20  F   -0.247875   0.000226
    21  C    0.893131  -0.001489
    22  O   -0.435417   0.000460
    23  N   -0.653383  -0.010928
    24  C    0.779395   0.000036
    25  F   -0.244493   0.001195
    26  F   -0.251592  -0.000380
    27  C    0.411693  -0.000335
    28  F   -0.238512   0.000824
    29  O   -0.505946   0.000006
    30  C    1.000842   0.000008
    31  F   -0.242740  -0.000001
    32  F   -0.240374   0.000000
    33  F   -0.232698  -0.000002
    34  C    0.818977  -0.000092
    35  F   -0.252045   0.000699
    36  F   -0.242007   0.000005
    37  F   -0.234369   0.000003
    38  H    0.279312   0.022204
    39  H    0.307110   0.087109
 Sum of Mulliken charges =   1.00000   1.00000

 Dipole moment (field-independent basis, Debye):
    X=             -1.9971    Y=             -9.2922    Z=             -6.4534  Tot=             11.4882
 Quadrupole moment (field-independent basis, Debye-Ang):
   XX=           -178.2051   YY=           -175.8198   ZZ=           -182.8199
   XY=              5.0650   XZ=              5.7880   YZ=              7.3678

 Normal termination of Gaussian 09 at Sun Mar  3 17:47:00 2024.
