 Gaussian 09, Revision D.01,
 Gaussian 09:  ES64L-G09RevD.01 24-Apr-2013

 ----------------------------------------------------------------------
 #p CAM-B3LYP/6-31G(d,p) SCRF=(PCM,Solvent=Generic,Read) NoSymm out=wfn
 ----------------------------------------------------------------------

 ------------
 Title S2_neu
 ------------
 Symbolic Z-matrix:
 Charge =  0 Multiplicity = 1

                          Input orientation:
 ---------------------------------------------------------------------
 Center     Atomic      Atomic             Coordinates (Angstroms)
 Number     Number       Type             X           Y           Z
 ---------------------------------------------------------------------
      1          9           0       -0.216524   -0.180793    1.424777
      2          6           0        0.358164   -0.242545    0.190137
      3          6           0        1.345090    0.893435    0.010309
      4          9           0        0.656290    2.068303    0.033770
      5          6           0        2.445522    0.926104    1.068029
      6          9           0        3.239981    2.012467    0.921677
      7          9           0        3.247809   -0.158058    0.994089
      8          9           0        1.936271    0.966745    2.319270
      9          9           0        1.902962    0.843607   -1.230437
     10          6           0       -0.760592   -0.288274   -0.860296
     11          8           0       -0.978729   -1.683504   -1.215634
     12          6           0       -0.200587   -2.437214   -0.300981
     13          9           0        0.100590   -3.631049   -0.839950
     14          9           0       -0.974054   -2.649449    0.784750
     15          6           0        1.001295   -1.587642    0.016386
     16          9           0        1.685040   -1.983745    1.103645
     17          9           0        1.868967   -1.573432   -1.023151
     18          6           0       -2.129491    0.286833   -0.453445
     19          9           0       -3.006602    0.068727   -1.484617
     20          6           0       -2.135596    1.761578   -0.102258
     21          9           0       -3.389901    2.214281    0.135273
     22          9           0       -1.616565    2.519557   -1.092631
     23          9           0       -1.419843    2.006096    1.019582
     24          9           0       -2.622666   -0.441485    0.593010
     25          9           0       -0.336829    0.289458   -2.011305
 ---------------------------------------------------------------------

 SCF Done:  E(RCAM-B3LYP) =  -1976.96721707     A.U. after   12 cycles

 Alpha  occ. eigenvalues --  -24.84240 -24.84150 -24.83994 -24.83936 -24.83766
 Alpha  occ. eigenvalues --  -24.83712 -24.83617 -24.83586 -24.83518 -24.83480
 Alpha  occ. eigenvalues --  -24.83464 -24.83320 -24.83218 -24.83130 -24.83094
 Alpha  occ. eigenvalues --  -24.83054 -19.32264 -10.55731 -10.55343 -10.53190
 Alpha  occ. eigenvalues --  -10.50404 -10.49925 -10.49617 -10.48675 -10.44154
 Alpha  occ. eigenvalues --   -1.42752  -1.42189  -1.41179  -1.39239  -1.38834
 Alpha  occ. eigenvalues --   -1.38257  -1.36648  -1.36313  -1.33625  -1.33446
 Alpha  occ. eigenvalues --   -1.33091  -1.32868  -1.32769  -1.32595  -1.32049
 Alpha  occ. eigenvalues --   -1.31536  -1.20553  -0.98422  -0.93227  -0.90838
 Alpha  occ. eigenvalues --   -0.86975  -0.81958  -0.78517  -0.76977  -0.75858
 Alpha  occ. eigenvalues --   -0.72815  -0.72656  -0.71130  -0.70737  -0.70458
 Alpha  occ. eigenvalues --   -0.69573  -0.69448  -0.69369  -0.68655  -0.67857
 Alpha  occ. eigenvalues --   -0.67039  -0.65964  -0.65670  -0.65270  -0.64643
 Alpha  occ. eigenvalues --   -0.63084  -0.59010  -0.58392  -0.57584  -0.57283
 Alpha  occ. eigenvalues --   -0.56944  -0.56734  -0.56568  -0.55927  -0.55891
 Alpha  occ. eigenvalues --   -0.55601  -0.54805  -0.54492  -0.54274  -0.54039
 Alpha  occ. eigenvalues --   -0.53894  -0.53656  -0.52941  -0.52688  -0.52326
 Alpha  occ. eigenvalues --   -0.51719  -0.51458  -0.51348  -0.51241  -0.50949
 Alpha  occ. eigenvalues --   -0.50714  -0.50253  -0.50138  -0.49720  -0.49034
 Alpha  occ. eigenvalues --   -0.48661  -0.46073  -0.45336  -0.44117  -0.42685
 Alpha virt. eigenvalues --    0.02230   0.05713   0.07138   0.09588   0.11252
 Alpha virt. eigenvalues --    0.12936   0.14840   0.17141   0.19165   0.22754
 Alpha virt. eigenvalues --    0.23898   0.24217   0.24483   0.25123   0.26503

 Mulliken charges:
               1
     1  F   -0.283678
     2  C    0.120369
     3  C    0.533374
     4  F   -0.266470
     5  C    0.788802
     6  F   -0.245276
     7  F   -0.238720
     8  F   -0.241266
     9  F   -0.260062
    10  C    0.486575
    11  O   -0.503801
    12  C    0.764525
    13  F   -0.242325
    14  F   -0.247734
    15  C    0.550466
    16  F   -0.254458
    17  F   -0.255997
    18  C    0.535651
    19  F   -0.265690
    20  C    0.785942
    21  F   -0.247590
    22  F   -0.245846
    23  F   -0.246907
    24  F   -0.263114
    25  F   -0.256769
 Sum of Mulliken charges =   0.00000

 Dipole moment (field-independent basis, Debye):
    X=              0.6068    Y=             -0.0269    Z=              0.2785  Tot=              0.6681
 Quadrupole moment (field-independent basis, Debye-Ang):
   XX=           -131.5711   YY=           -130.5018   ZZ=           -131.4135
   XY=             -1.0379   XZ=             -0.1910   YZ=             -0.4166

 Normal termination of Gaussian 09 at Mon Feb  3 21:53:04 2025.
