 Gaussian 09, Revision D.01,
 Gaussian 09:  ES64L-G09RevD.01 24-Apr-2013

 ----------------------------------------------------------------------
 #p CAM-B3LYP/6-31G(d,p) SCRF=(PCM,Solvent=Generic,Read) NoSymm out=wfn
 ----------------------------------------------------------------------

 ---------------------
 Title AEPYridine1_neu
 ---------------------
 Symbolic Z-matrix:
 Charge =  0 Multiplicity = 1

                          Input orientation:
 ---------------------------------------------------------------------
 Center     Atomic      Atomic             Coordinates (Angstroms)
 Number     Number       Type             X           Y           Z
 ---------------------------------------------------------------------
      1          9           0       -3.050995   -3.708550    0.395124
      2          6           0       -3.585539   -2.623601   -0.199370
      3          9           0       -4.484911   -3.059605   -1.109811
      4          6           0       -4.201841   -1.648402    0.785446
      5          9           0       -3.459452   -1.542816    1.909984
      6          9           0       -5.447177   -1.979839    1.172399
      7          6           0       -4.130003   -0.399781   -0.030458
      8          9           0       -5.058624   -0.532599   -1.044478
      9          6           0       -4.475129    0.832505    0.755990
     10          9           0       -3.593232    1.008718    1.776320
     11          6           0       -4.531399    2.038221   -0.178964
     12          8           0       -5.777369    2.504525   -0.411777
     13          8           0       -3.578768    2.572096   -0.726788
     14          9           0       -5.680319    0.631861    1.372090
     15          6           0       -2.738148   -0.532631   -0.656926
     16          9           0       -2.782347    0.105667   -1.861001
     17          6           0       -1.515282   -0.024592    0.137322
     18          9           0       -1.424564   -0.695961    1.322508
     19          6           0       -0.187595   -0.179101   -0.635859
     20          7           0        0.928550    0.179070    0.118402
     21          6           0        2.272245   -0.028171   -0.392597
     22          6           0        3.295322    0.831982    0.348237
     23          6           0        4.692442    0.603561   -0.154032
     24          6           0        5.188840    1.311864   -1.244687
     25          7           0        6.427813    1.143522   -1.757315
     26          6           0        7.212135    0.221572   -1.160451
     27          6           0        6.813744   -0.540103   -0.074950
     28          6           0        5.532714   -0.345614    0.433170
     29          8           0       -0.092304   -0.563740   -1.796972
     30          9           0       -1.684217    1.279187    0.488453
     31          8           0       -2.568095   -1.945686   -0.933894
     32          1           0       -5.664784    3.259789   -1.028378
     33          1           0        0.800680    0.250091    1.123566
     34          1           0        2.500075   -1.094365   -0.276939
     35          1           0        2.284460    0.193343   -1.466266
     36          1           0        3.036905    1.894157    0.247100
     37          1           0        3.253038    0.622917    1.425168
     38          1           0        4.586664    2.058733   -1.756272
     39          1           0        8.201859    0.106171   -1.592824
     40          1           0        7.485666   -1.269123    0.363751
     41          1           0        5.198943   -0.935272    1.283064
 ---------------------------------------------------------------------

 SCF Done:  E(RCAM-B3LYP) =  -1985.73657537     A.U. after   13 cycles

 Alpha  occ. eigenvalues --  -24.83137 -24.83048 -24.82894 -24.82668 -24.82482
 Alpha  occ. eigenvalues --  -24.82215 -24.82052 -24.81837 -24.81407 -24.81347
 Alpha  occ. eigenvalues --  -19.31210 -19.30144 -19.25364 -19.22205 -14.45396
 Alpha  occ. eigenvalues --  -14.40850 -10.52182 -10.49232 -10.48614 -10.47652
 Alpha  occ. eigenvalues --  -10.46973 -10.44398 -10.42539 -10.40105 -10.30939
 Alpha  occ. eigenvalues --  -10.29924 -10.29795 -10.28560 -10.28418 -10.28097
 Alpha  occ. eigenvalues --  -10.27489  -1.40310  -1.38411  -1.37555  -1.37394
 Alpha  occ. eigenvalues --   -1.35508  -1.33322  -1.32461  -1.31456  -1.31306
 Alpha  occ. eigenvalues --   -1.30525  -1.22117  -1.19383  -1.14183  -1.12348
 Alpha  occ. eigenvalues --   -1.02286  -1.01924  -0.97283  -0.91063  -0.90128
 Alpha  occ. eigenvalues --   -0.88248  -0.86808  -0.83806  -0.81526  -0.78236
 Alpha  occ. eigenvalues --   -0.76388  -0.74651  -0.72465  -0.71070  -0.70806
 Alpha  occ. eigenvalues --   -0.70456  -0.69192  -0.68590  -0.68215  -0.68047
 Alpha  occ. eigenvalues --   -0.66814  -0.66341  -0.65310  -0.64769  -0.64754
 Alpha  occ. eigenvalues --   -0.63340  -0.62486  -0.61759  -0.59514  -0.58528
 Alpha  occ. eigenvalues --   -0.57368  -0.57272  -0.56409  -0.56159  -0.55700
 Alpha  occ. eigenvalues --   -0.55537  -0.55112  -0.54300  -0.53916  -0.53721
 Alpha  occ. eigenvalues --   -0.53524  -0.53057  -0.52808  -0.52751  -0.52370
 Alpha  occ. eigenvalues --   -0.52092  -0.51719  -0.51433  -0.50700  -0.50199
 Alpha  occ. eigenvalues --   -0.49797  -0.49416  -0.49341  -0.48935  -0.48432
 Alpha  occ. eigenvalues --   -0.48363  -0.47548  -0.47034  -0.46884  -0.46053
 Alpha  occ. eigenvalues --   -0.45512  -0.44888  -0.43485  -0.42761  -0.42345
 Alpha  occ. eigenvalues --   -0.41719  -0.41004  -0.37511  -0.34828  -0.34231
 Alpha  occ. eigenvalues --   -0.33211  -0.32220  -0.31442
 Alpha virt. eigenvalues --   -0.00491   0.01809   0.02377   0.03457   0.05471
 Alpha virt. eigenvalues --    0.08549   0.10526   0.11612   0.12860   0.13637
 Alpha virt. eigenvalues --    0.14321   0.15057   0.16267   0.17744   0.18391

 Mulliken charges:
               1
     1  F   -0.249472
     2  C    0.761173
     3  F   -0.249970
     4  C    0.544030
     5  F   -0.258144
     6  F   -0.256739
     7  C    0.150886
     8  F   -0.297642
     9  C    0.605337
    10  F   -0.263140
    11  C    0.530975
    12  O   -0.468994
    13  O   -0.443744
    14  F   -0.279279
    15  C    0.518616
    16  F   -0.269367
    17  C    0.533091
    18  F   -0.278659
    19  C    0.584256
    20  N   -0.567218
    21  C   -0.013104
    22  C   -0.275670
    23  C    0.086201
    24  C    0.053019
    25  N   -0.442257
    26  C    0.079969
    27  C   -0.099830
    28  C   -0.091718
    29  O   -0.489913
    30  F   -0.263086
    31  O   -0.505824
    32  H    0.360838
    33  H    0.285458
    34  H    0.128612
    35  H    0.153734
    36  H    0.132080
    37  H    0.112949
    38  H    0.111499
    39  H    0.111768
    40  H    0.110382
    41  H    0.108897
 Sum of Mulliken charges =   0.00000

 Dipole moment (field-independent basis, Debye):
    X=              0.7312    Y=              1.0985    Z=              4.2793  Tot=              4.4781
 Quadrupole moment (field-independent basis, Debye-Ang):
   XX=           -161.9481   YY=           -165.6231   ZZ=           -177.0978
   XY=            -23.4133   XZ=             16.4907   YZ=             -3.6592

 Normal termination of Gaussian 09 at Mon Feb  3 21:46:47 2025.
