 Gaussian 09, Revision D.01,
 Gaussian 09:  ES64L-G09RevD.01 24-Apr-2013

 ----------------------------------------------------------------------
 #p CAM-B3LYP/6-31G(d,p) opt SCRF=(PCM,Solvent=Generic,Read) NoSymm out
 =wfn
 ----------------------------------------------------------------------

 --------------
 Title DBE1_neu
 --------------
 Symbolic Z-matrix:
 Charge =  0 Multiplicity = 1

 SCF Done:  E(RCAM-B3LYP) =  -2108.41848215     A.U. after   13 cycles
 SCF Done:  E(RCAM-B3LYP) =  -2108.44148939     A.U. after   12 cycles
 SCF Done:  E(RCAM-B3LYP) =  -2108.44867693     A.U. after   12 cycles
 SCF Done:  E(RCAM-B3LYP) =  -2108.45116256     A.U. after   12 cycles
 SCF Done:  E(RCAM-B3LYP) =  -2108.45268313     A.U. after   12 cycles
 SCF Done:  E(RCAM-B3LYP) =  -2108.45388217     A.U. after   12 cycles
 SCF Done:  E(RCAM-B3LYP) =  -2108.45350950     A.U. after   14 cycles
 SCF Done:  E(RCAM-B3LYP) =  -2108.45472586     A.U. after   11 cycles
 SCF Done:  E(RCAM-B3LYP) =  -2108.45568735     A.U. after   12 cycles
 SCF Done:  E(RCAM-B3LYP) =  -2108.45619225     A.U. after   12 cycles
 SCF Done:  E(RCAM-B3LYP) =  -2108.45710094     A.U. after   10 cycles
 SCF Done:  E(RCAM-B3LYP) =  -2108.45704253     A.U. after   12 cycles
 SCF Done:  E(RCAM-B3LYP) =  -2108.45711802     A.U. after   11 cycles
 SCF Done:  E(RCAM-B3LYP) =  -2108.45712871     A.U. after   10 cycles
 SCF Done:  E(RCAM-B3LYP) =  -2108.45713420     A.U. after   10 cycles
 SCF Done:  E(RCAM-B3LYP) =  -2108.45713576     A.U. after    9 cycles
 SCF Done:  E(RCAM-B3LYP) =  -2108.45713733     A.U. after   10 cycles
 SCF Done:  E(RCAM-B3LYP) =  -2108.45713779     A.U. after    8 cycles
 SCF Done:  E(RCAM-B3LYP) =  -2108.45713798     A.U. after    7 cycles
 SCF Done:  E(RCAM-B3LYP) =  -2108.45713803     A.U. after    7 cycles
 Optimization completed.
    -- Stationary point found.

                          Input orientation:
 ---------------------------------------------------------------------
 Center     Atomic      Atomic             Coordinates (Angstroms)
 Number     Number       Type             X           Y           Z
 ---------------------------------------------------------------------
      1          9           0        5.181227    1.064992    2.725952
      2          6           0        4.622820    1.329811    1.539744
      3          9           0        4.071013    2.542588    1.603078
      4          6           0        5.669799    1.236445    0.410807
      5          9           0        6.912260    1.463498    0.877748
      6          9           0        5.390502    2.143272   -0.534281
      7          6           0        5.487214   -0.182826   -0.161340
      8          9           0        5.628793   -0.171318   -1.512493
      9          6           0        6.502710   -1.183886    0.424534
     10          9           0        6.284853   -1.265470    1.750737
     11          6           0        7.998175   -0.861969    0.215484
     12          8           0        8.250437   -0.520664   -1.044007
     13          8           0        8.804997   -0.979179    1.092568
     14          9           0        6.280432   -2.387937   -0.147356
     15          6           0        4.017202   -0.521947    0.253537
     16          9           0        3.908328   -1.764843    0.765942
     17          6           0        2.998973   -0.400701   -0.895588
     18          9           0        3.284918   -1.320713   -1.830641
     19          6           0        1.542293   -0.609352   -0.426529
     20          7           0        0.833757    0.522061   -0.283644
     21          6           0       -0.559552    0.483073    0.130408
     22          6           0       -1.519280    0.335816   -1.051520
     23          7           0       -2.876875    0.094548   -0.584467
     24          6           0       -3.887361    0.669096   -1.472744
     25          6           0       -4.075032    2.172421   -1.279101
     26          6           0       -4.612730    2.544045    0.100303
     27          6           0       -4.747259    4.049717    0.302330
     28          6           0       -3.110948   -1.326711   -0.315279
     29          6           0       -4.155031   -1.558827    0.773299
     30          6           0       -4.394500   -3.036636    1.093281
     31          6           0       -5.074317   -3.822282   -0.027091
     32          8           0        1.144186   -1.738211   -0.209497
     33          9           0        3.154478    0.843851   -1.434866
     34          8           0        3.647815    0.407182    1.240314
     35          1           0        9.208527   -0.378311   -1.128852
     36          1           0        1.260166    1.395989   -0.549881
     37          1           0       -0.787191    1.394826    0.685793
     38          1           0       -0.670769   -0.360729    0.813130
     39          1           0       -1.496055    1.257290   -1.639871
     40          1           0       -1.159909   -0.470191   -1.712485
     41          1           0       -4.839930    0.174359   -1.261906
     42          1           0       -3.655024    0.450517   -2.530129
     43          1           0       -4.760446    2.536105   -2.054701
     44          1           0       -3.124877    2.694227   -1.452135
     45          1           0       -3.950823    2.117149    0.859987
     46          1           0       -5.590076    2.065888    0.243934
     47          1           0       -5.422544    4.491473   -0.437636
     48          1           0       -3.778622    4.550311    0.202219
     49          1           0       -5.141355    4.287032    1.294296
     50          1           0       -2.166965   -1.773646    0.013208
     51          1           0       -3.387768   -1.854521   -1.243764
     52          1           0       -5.107359   -1.095078    0.488108
     53          1           0       -3.817581   -1.034951    1.673821
     54          1           0       -3.438837   -3.512119    1.346834
     55          1           0       -5.011931   -3.100782    1.995901
     56          1           0       -5.275881   -4.851634    0.281725
     57          1           0       -6.030581   -3.364797   -0.301445
     58          1           0       -4.458467   -3.867350   -0.929311
 ---------------------------------------------------------------------

 Alpha  occ. eigenvalues --  -24.83864 -24.83308 -24.82836 -24.82415 -24.82245
 Alpha  occ. eigenvalues --  -24.82182 -24.81992 -24.81874 -24.81614 -24.81150
 Alpha  occ. eigenvalues --  -19.31621 -19.30542 -19.24995 -19.21064 -14.45417
 Alpha  occ. eigenvalues --  -14.39397 -10.52398 -10.48476 -10.47950 -10.46509
 Alpha  occ. eigenvalues --  -10.46404 -10.43634 -10.42173 -10.38903 -10.29910
 Alpha  occ. eigenvalues --  -10.28348 -10.27599 -10.27275 -10.24891 -10.24839
 Alpha  occ. eigenvalues --  -10.24515 -10.24502 -10.24230 -10.24112  -1.40960
 Alpha  occ. eigenvalues --   -1.38591  -1.38144  -1.37465  -1.34709  -1.34261
 Alpha  occ. eigenvalues --   -1.33366  -1.32090  -1.31589  -1.31123  -1.22808
 Alpha  occ. eigenvalues --   -1.21834  -1.14171  -1.13760  -1.02925  -1.00337
 Alpha  occ. eigenvalues --   -0.94979  -0.90480  -0.87604  -0.86955  -0.86524
 Alpha  occ. eigenvalues --   -0.84455  -0.81497  -0.80360  -0.78040  -0.77640
 Alpha  occ. eigenvalues --   -0.75828  -0.73876  -0.72528  -0.71269  -0.70821
 Alpha  occ. eigenvalues --   -0.70565  -0.69171  -0.68763  -0.67729  -0.67514
 Alpha  occ. eigenvalues --   -0.66921  -0.66798  -0.66460  -0.65386  -0.64717
 Alpha  occ. eigenvalues --   -0.64435  -0.64046  -0.63664  -0.63060  -0.61726
 Alpha  occ. eigenvalues --   -0.58530  -0.57442  -0.56812  -0.56477  -0.56275
 Alpha  occ. eigenvalues --   -0.55944  -0.55415  -0.55063  -0.54428  -0.54245
 Alpha  occ. eigenvalues --   -0.53683  -0.53489  -0.53454  -0.53098  -0.52989
 Alpha  occ. eigenvalues --   -0.52855  -0.52032  -0.51826  -0.51556  -0.51284
 Alpha  occ. eigenvalues --   -0.51246  -0.50550  -0.50477  -0.50162  -0.50007
 Alpha  occ. eigenvalues --   -0.49654  -0.49465  -0.49127  -0.48334  -0.48003
 Alpha  occ. eigenvalues --   -0.47889  -0.47324  -0.46470  -0.45762  -0.45541
 Alpha  occ. eigenvalues --   -0.44490  -0.44295  -0.43573  -0.42572  -0.41943
 Alpha  occ. eigenvalues --   -0.41810  -0.41749  -0.41568  -0.40880  -0.39454
 Alpha  occ. eigenvalues --   -0.38708  -0.38579  -0.38288  -0.37596  -0.37486
 Alpha  occ. eigenvalues --   -0.37334  -0.33965  -0.33227  -0.27073
 Alpha virt. eigenvalues --    0.01783   0.03425   0.06647   0.10473   0.11427
 Alpha virt. eigenvalues --    0.12310   0.12555   0.13792   0.14531   0.15010
 Alpha virt. eigenvalues --    0.15408   0.15664   0.16741   0.17524   0.18093

 Mulliken charges:
               1
     1  F   -0.238935
     2  C    0.755106
     3  F   -0.245516
     4  C    0.526270
     5  F   -0.256890
     6  F   -0.254863
     7  C    0.138242
     8  F   -0.281591
     9  C    0.609202
    10  F   -0.264610
    11  C    0.535702
    12  O   -0.468291
    13  O   -0.431745
    14  F   -0.269832
    15  C    0.480477
    16  F   -0.256404
    17  C    0.574915
    18  F   -0.264486
    19  C    0.539395
    20  N   -0.531800
    21  C   -0.054506
    22  C   -0.032761
    23  N   -0.433426
    24  C   -0.043775
    25  C   -0.172151
    26  C   -0.168594
    27  C   -0.320365
    28  C   -0.044259
    29  C   -0.170413
    30  C   -0.184469
    31  C   -0.319833
    32  O   -0.513260
    33  F   -0.297323
    34  O   -0.493289
    35  H    0.357556
    36  H    0.290185
    37  H    0.125147
    38  H    0.146530
    39  H    0.099032
    40  H    0.099388
    41  H    0.099008
    42  H    0.076900
    43  H    0.091142
    44  H    0.085906
    45  H    0.106305
    46  H    0.088626
    47  H    0.101169
    48  H    0.098766
    49  H    0.102096
    50  H    0.109626
    51  H    0.082362
    52  H    0.090354
    53  H    0.098159
    54  H    0.098027
    55  H    0.095101
    56  H    0.103928
    57  H    0.100952
    58  H    0.107816
 Sum of Mulliken charges =   0.00000

 Dipole moment (field-independent basis, Debye):
    X=             -0.5835    Y=              3.6522    Z=             -2.5226  Tot=              4.4769
 Quadrupole moment (field-independent basis, Debye-Ang):
   XX=           -174.0255   YY=           -198.7972   ZZ=           -197.6697
   XY=             10.4657   XZ=            -16.7729   YZ=             -0.4094

 Normal termination of Gaussian 09 at Wed Feb  5 13:38:04 2025.
