 Gaussian 09, Revision D.01,
 Gaussian 09:  ES64L-G09RevD.01 24-Apr-2013

 ----------------------------------------------------------------------
 #p CAM-B3LYP/6-31G(d,p) SCRF=(PCM,Solvent=Generic,Read) NoSymm out=wfn
 ----------------------------------------------------------------------

 ------------------
 Title A230421841_0
 ------------------
 Symbolic Z-matrix:
 Charge =  0 Multiplicity = 1

                          Input orientation:
 ---------------------------------------------------------------------
 Center     Atomic      Atomic             Coordinates (Angstroms)
 Number     Number       Type             X           Y           Z
 ---------------------------------------------------------------------
      1          6           0       -2.137075   -3.197741    1.214520
      2          6           0       -2.382030   -2.547525   -0.140323
      3          7           0       -1.707054   -1.255745   -0.254302
      4          6           0       -2.348149   -0.139361    0.241388
      5          8           0       -3.500862   -0.184036    0.673359
      6          7           0       -1.606340    1.024635    0.247636
      7          6           0       -2.205761    2.221085    0.838048
      8          6           0       -2.973525    3.031154   -0.196989
      9          6           0       -0.351477    1.128709   -0.318363
     10          8           0        0.298976    2.171394   -0.243413
     11          7           0        0.132786    0.007125   -0.942774
     12          6           0        1.483241    0.058355   -1.481870
     13          9           0        1.573727   -0.837096   -2.508170
     14          9           0        1.665255    1.260028   -2.104394
     15          6           0        2.621448   -0.181533   -0.455185
     16          9           0        2.538366   -1.457738    0.022661
     17          8           0        2.427110    0.659602    0.687826
     18          6           0        3.530793    0.686724    1.552540
     19          9           0        4.013450   -0.547518    1.761720
     20          9           0        3.135100    1.201545    2.731697
     21          9           0        4.484019    1.477248    1.034629
     22          6           0        3.925139   -0.006124   -1.247082
     23          9           0        5.007267   -0.335251   -0.499591
     24          9           0        3.982521   -0.784090   -2.349766
     25          9           0        4.107212    1.273140   -1.644840
     26          6           0       -0.409590   -1.231977   -0.721182
     27          8           0        0.225659   -2.269043   -0.906332
     28          1           0       -2.650635   -4.162406    1.270777
     29          1           0       -1.069022   -3.368375    1.383977
     30          1           0       -2.506550   -2.565838    2.028671
     31          1           0       -2.029405   -3.214970   -0.935027
     32          1           0       -3.459102   -2.411501   -0.290142
     33          1           0       -2.881911    1.933247    1.651050
     34          1           0       -1.422756    2.845930    1.282182
     35          1           0       -2.315633    3.358585   -1.008629
     36          1           0       -3.413855    3.919497    0.266041
     37          1           0       -3.781337    2.439869   -0.640348
 ---------------------------------------------------------------------

 SCF Done:  E(RCAM-B3LYP) =  -1788.40330064     A.U. after   13 cycles

 Alpha  occ. eigenvalues --  -24.83586 -24.83468 -24.83356 -24.83209 -24.82870
 Alpha  occ. eigenvalues --  -24.82592 -24.82538 -24.82473 -24.82424 -19.32895
 Alpha  occ. eigenvalues --  -19.23048 -19.22778 -19.22525 -14.51867 -14.49279
 Alpha  occ. eigenvalues --  -14.49254 -10.59511 -10.55228 -10.52869 -10.48746
 Alpha  occ. eigenvalues --  -10.44780 -10.44735 -10.43698 -10.31120 -10.31027
 Alpha  occ. eigenvalues --  -10.25722 -10.25691  -1.43167  -1.41596  -1.38638
 Alpha  occ. eigenvalues --   -1.35408  -1.33483  -1.33226  -1.32593  -1.31994
 Alpha  occ. eigenvalues --   -1.31169  -1.21499  -1.20416  -1.16405  -1.16146
 Alpha  occ. eigenvalues --   -1.08480  -1.06190  -1.04692  -0.93248  -0.87650
 Alpha  occ. eigenvalues --   -0.85427  -0.83817  -0.81770  -0.78776  -0.77770
 Alpha  occ. eigenvalues --   -0.76200  -0.74026  -0.72920  -0.72637  -0.71404
 Alpha  occ. eigenvalues --   -0.70407  -0.70227  -0.69438  -0.68379  -0.67218
 Alpha  occ. eigenvalues --   -0.66460  -0.66117  -0.64206  -0.61091  -0.59722
 Alpha  occ. eigenvalues --   -0.59404  -0.57485  -0.57021  -0.56174  -0.55923
 Alpha  occ. eigenvalues --   -0.55537  -0.55452  -0.54983  -0.54677  -0.53988
 Alpha  occ. eigenvalues --   -0.53946  -0.53703  -0.53310  -0.52858  -0.52681
 Alpha  occ. eigenvalues --   -0.52122  -0.51954  -0.51149  -0.50720  -0.50432
 Alpha  occ. eigenvalues --   -0.50273  -0.50216  -0.49720  -0.49502  -0.48785
 Alpha  occ. eigenvalues --   -0.48667  -0.46448  -0.46145  -0.45604  -0.44851
 Alpha  occ. eigenvalues --   -0.44742  -0.44365  -0.42086  -0.41932  -0.39081
 Alpha  occ. eigenvalues --   -0.38527  -0.37495  -0.35795  -0.35035  -0.34687
 Alpha virt. eigenvalues --    0.01771   0.02612   0.06039   0.09393   0.12817
 Alpha virt. eigenvalues --    0.14326   0.14781   0.16654   0.17629   0.17647
 Alpha virt. eigenvalues --    0.18078   0.19460   0.20126   0.20208   0.20337

 Mulliken charges:
               1
     1  C   -0.328247
     2  C   -0.062131
     3  N   -0.564432
     4  C    0.827421
     5  O   -0.527844
     6  N   -0.571249
     7  C   -0.064264
     8  C   -0.326023
     9  C    0.841985
    10  O   -0.515426
    11  N   -0.637984
    12  C    0.759961
    13  F   -0.260383
    14  F   -0.256223
    15  C    0.437193
    16  F   -0.255496
    17  O   -0.506316
    18  C    0.995900
    19  F   -0.243359
    20  F   -0.240410
    21  F   -0.243587
    22  C    0.811813
    23  F   -0.260732
    24  F   -0.244385
    25  F   -0.246416
    26  C    0.821067
    27  O   -0.507964
    28  H    0.126415
    29  H    0.128491
    30  H    0.125129
    31  H    0.150277
    32  H    0.153205
    33  H    0.151840
    34  H    0.153438
    35  H    0.125958
    36  H    0.126542
    37  H    0.126239
 Sum of Mulliken charges =   0.00000

 Dipole moment (field-independent basis, Debye):
    X=             -2.7375    Y=             -0.1689    Z=              0.9352  Tot=              2.8978
 Quadrupole moment (field-independent basis, Debye-Ang):
   XX=           -153.8177   YY=           -147.5697   ZZ=           -146.9261
   XY=             -0.0695   XZ=              4.8216   YZ=              0.1112

 Normal termination of Gaussian 09 at Sun Mar  3 18:10:01 2024.
