 Gaussian 09, Revision D.01,
 Gaussian 09:  ES64L-G09RevD.01 24-Apr-2013

 ----------------------------------------------------------------------
 #p CAM-B3LYP/6-31G(d,p) SCRF=(PCM,Solvent=Generic,Read) NoSymm out=wfn
 ----------------------------------------------------------------------

 ------------------
 Title A144013140_0
 ------------------
 Symbolic Z-matrix:
 Charge =  0 Multiplicity = 1

                          Input orientation:
 ---------------------------------------------------------------------
 Center     Atomic      Atomic             Coordinates (Angstroms)
 Number     Number       Type             X           Y           Z
 ---------------------------------------------------------------------
      1          6           0        4.126936   -2.584429   -0.712755
      2          6           0        3.142404   -1.678346   -0.759294
      3          6           0        1.898455   -1.868464    0.042271
      4          8           0        1.750199   -2.821308    0.802095
      5          7           0        0.980869   -0.858595   -0.083490
      6          6           0        1.213484    0.331617    0.572789
      7          8           0        2.358207    0.735284    0.795375
      8          7           0        0.108532    1.125123    0.795648
      9          6           0       -1.168986    0.777394    0.425599
     10          8           0       -2.078091    1.612736    0.390198
     11          7           0       -1.315002   -0.461020   -0.152191
     12          6           0       -0.254682   -1.234031   -0.548630
     13          8           0       -0.367298   -2.022783   -1.493556
     14          6           0       -2.520101   -1.098247   -0.031180
     15          8           0       -2.754788   -1.928132    0.841642
     16          6           0       -3.554289   -0.649521   -1.006864
     17          6           0       -4.772392   -1.204834   -1.011462
     18          6           0        0.210258    2.070470    1.775165
     19          8           0       -0.069426    1.858205    2.952374
     20          6           0        0.787027    3.386511    1.378177
     21          6           0        0.877913    3.847808    0.123936
     22          1           0        4.053900   -3.477143   -0.096176
     23          1           0        5.035582   -2.450643   -1.290635
     24          1           0        3.232681   -0.793674   -1.377895
     25          1           0       -3.299215    0.134605   -1.709919
     26          1           0       -5.528713   -0.880994   -1.718514
     27          1           0       -5.045306   -1.993283   -0.313808
     28          1           0        1.115141    3.996921    2.214882
     29          1           0        1.301954    4.832081   -0.059923
     30          1           0        0.534745    3.296691   -0.743857
 ---------------------------------------------------------------------

 SCF Done:  E(RCAM-B3LYP) =  -1077.75838293     A.U. after   15 cycles

 Alpha  occ. eigenvalues --  -19.25481 -19.25283 -19.25241 -19.25236 -19.25175
 Alpha  occ. eigenvalues --  -19.25137 -14.51652 -14.51279 -14.50888 -10.47065
 Alpha  occ. eigenvalues --  -10.46890 -10.46547 -10.42095 -10.41912 -10.41898
 Alpha  occ. eigenvalues --  -10.30001 -10.29473 -10.29389 -10.29374 -10.29010
 Alpha  occ. eigenvalues --  -10.28946  -1.24793  -1.19763  -1.19532  -1.16009
 Alpha  occ. eigenvalues --   -1.15787  -1.15269  -1.09920  -1.07472  -1.07239
 Alpha  occ. eigenvalues --   -0.89992  -0.88940  -0.88542  -0.83813  -0.83004
 Alpha  occ. eigenvalues --   -0.82653  -0.75426  -0.74243  -0.73572  -0.70460
 Alpha  occ. eigenvalues --   -0.67912  -0.66519  -0.63051  -0.60350  -0.60176
 Alpha  occ. eigenvalues --   -0.59140  -0.56743  -0.56631  -0.56458  -0.54767
 Alpha  occ. eigenvalues --   -0.54577  -0.53956  -0.53148  -0.52599  -0.51738
 Alpha  occ. eigenvalues --   -0.50642  -0.50278  -0.49318  -0.48510  -0.48180
 Alpha  occ. eigenvalues --   -0.46473  -0.46219  -0.46034  -0.41300  -0.41051
 Alpha  occ. eigenvalues --   -0.39064  -0.38694  -0.38334  -0.37775  -0.37464
 Alpha  occ. eigenvalues --   -0.36621  -0.36498  -0.35578  -0.35227  -0.34937
 Alpha virt. eigenvalues --   -0.04499  -0.04418  -0.03151  -0.00531  -0.00243
 Alpha virt. eigenvalues --    0.06406   0.08543   0.09821   0.10482   0.15470
 Alpha virt. eigenvalues --    0.16024   0.16232   0.16825   0.18596   0.18807

 Mulliken charges:
               1
     1  C   -0.195787
     2  C   -0.068413
     3  C    0.518603
     4  O   -0.423381
     5  N   -0.569867
     6  C    0.817531
     7  O   -0.479167
     8  N   -0.575466
     9  C    0.796887
    10  O   -0.469302
    11  N   -0.565006
    12  C    0.774545
    13  O   -0.454278
    14  C    0.507229
    15  O   -0.421166
    16  C   -0.066049
    17  C   -0.193796
    18  C    0.523961
    19  O   -0.412138
    20  C   -0.059957
    21  C   -0.212798
    22  H    0.151244
    23  H    0.134837
    24  H    0.122608
    25  H    0.124065
    26  H    0.135178
    27  H    0.151313
    28  H    0.136395
    29  H    0.143531
    30  H    0.128641
 Sum of Mulliken charges =   0.00000

 Dipole moment (field-independent basis, Debye):
    X=              1.2610    Y=              3.0285    Z=             -4.7273  Tot=              5.7540
 Quadrupole moment (field-independent basis, Debye-Ang):
   XX=           -100.8865   YY=           -117.4902   ZZ=           -126.1225
   XY=              0.6691   XZ=              2.0073   YZ=             -1.9508

 Normal termination of Gaussian 09 at Mon Mar  4 23:38:01 2024.
