 Gaussian 09, Revision D.01,
 Gaussian 09:  ES64L-G09RevD.01 24-Apr-2013

 ----------------------------------------------------------------------
 #p CAM-B3LYP/6-31G(d,p) SCRF=(PCM,Solvent=Generic,Read) NoSymm out=wfn
 ----------------------------------------------------------------------

 -------------
 Title OA2_neu
 -------------
 Symbolic Z-matrix:
 Charge =  0 Multiplicity = 1

                          Input orientation:
 ---------------------------------------------------------------------
 Center     Atomic      Atomic             Coordinates (Angstroms)
 Number     Number       Type             X           Y           Z
 ---------------------------------------------------------------------
      1          9           0       -6.632856    1.283116    0.903111
      2          6           0       -5.408012    1.005316    1.391082
      3          9           0       -5.460372    1.177359    2.726538
      4          6           0       -4.925270   -0.368919    0.989347
      5          9           0       -3.914027   -0.749656    1.821412
      6          9           0       -5.843390   -1.343715    1.060512
      7          6           0       -4.358631   -0.138845   -0.381258
      8          9           0       -3.397581   -1.071951   -0.627145
      9          6           0       -5.388245   -0.179263   -1.498350
     10          9           0       -6.297595    0.819133   -1.332026
     11          6           0       -6.085204   -1.537655   -1.584810
     12          8           0       -5.305798   -2.534185   -2.054668
     13          8           0       -7.241233   -1.776733   -1.267002
     14          9           0       -4.770782    0.102202   -2.684017
     15          6           0       -3.771021    1.266462   -0.213291
     16          9           0       -3.969874    2.020456   -1.326602
     17          6           0       -2.267788    1.289372    0.124871
     18          9           0       -1.901697    2.569260    0.459010
     19          6           0       -1.385593    0.801237   -1.036272
     20          7           0       -0.028885    0.786306   -0.735712
     21          6           0        0.958362    0.484726   -1.752490
     22          6           0        2.310042    0.109407   -1.148799
     23          6           0        2.254006   -1.210305   -0.376608
     24          6           0        3.621185   -1.720319    0.093780
     25          6           0        4.320733   -0.816382    1.116010
     26          6           0        5.374920    0.095268    0.479597
     27          6           0        5.980111    1.098486    1.464701
     28          6           0        6.772685    0.447405    2.587542
     29          8           0       -1.823408    0.457857   -2.130843
     30          9           0       -2.032708    0.566704    1.259016
     31          8           0       -4.507729    1.952318    0.833540
     32          1           0       -5.887195   -3.324477   -2.088056
     33          1           0        0.269555    1.315100    0.078592
     34          1           0        0.583754   -0.317182   -2.398431
     35          1           0        1.064528    1.383549   -2.370095
     36          1           0        3.042766    0.024339   -1.959858
     37          1           0        2.642882    0.915675   -0.485510
     38          1           0        1.591622   -1.106054    0.491423
     39          1           0        1.808455   -1.981400   -1.017710
     40          1           0        4.270600   -1.909327   -0.769216
     41          1           0        3.450948   -2.695438    0.568491
     42          1           0        4.821850   -1.463919    1.845647
     43          1           0        3.585500   -0.224891    1.673853
     44          1           0        4.933694    0.659380   -0.348216
     45          1           0        6.174490   -0.518071    0.045968
     46          1           0        6.648190    1.768633    0.910517
     47          1           0        5.188156    1.724203    1.892484
     48          1           0        7.258896    1.215296    3.197867
     49          1           0        6.126251   -0.138605    3.247333
     50          1           0        7.550710   -0.211276    2.189029
 ---------------------------------------------------------------------

 SCF Done:  E(RCAM-B3LYP) =  -1974.52552688     A.U. after   13 cycles

 Alpha  occ. eigenvalues --  -24.83871 -24.82590 -24.82498 -24.82379 -24.82058
 Alpha  occ. eigenvalues --  -24.81847 -24.81579 -24.81465 -24.81181 -24.81118
 Alpha  occ. eigenvalues --  -19.31191 -19.29898 -19.24884 -19.22048 -14.45240
 Alpha  occ. eigenvalues --  -10.52236 -10.48771 -10.48625 -10.47238 -10.46606
 Alpha  occ. eigenvalues --  -10.43972 -10.42469 -10.39832 -10.30068 -10.26560
 Alpha  occ. eigenvalues --  -10.25476 -10.25064 -10.24915 -10.24910 -10.24812
 Alpha  occ. eigenvalues --  -10.24250  -1.40331  -1.37983  -1.37602  -1.37006
 Alpha  occ. eigenvalues --   -1.34736  -1.33924  -1.32474  -1.31478  -1.30324
 Alpha  occ. eigenvalues --   -1.30140  -1.21802  -1.19338  -1.14123  -1.11853
 Alpha  occ. eigenvalues --   -1.01947  -0.97212  -0.90166  -0.89679  -0.87759
 Alpha  occ. eigenvalues --   -0.87203  -0.83995  -0.81969  -0.78649  -0.77407
 Alpha  occ. eigenvalues --   -0.76116  -0.73632  -0.72978  -0.70889  -0.70091
 Alpha  occ. eigenvalues --   -0.69930  -0.69285  -0.68570  -0.67436  -0.66826
 Alpha  occ. eigenvalues --   -0.65770  -0.65386  -0.65137  -0.64538  -0.63811
 Alpha  occ. eigenvalues --   -0.63483  -0.63301  -0.63097  -0.61109  -0.57920
 Alpha  occ. eigenvalues --   -0.57422  -0.56567  -0.56008  -0.55824  -0.55542
 Alpha  occ. eigenvalues --   -0.55131  -0.54790  -0.54236  -0.53621  -0.53397
 Alpha  occ. eigenvalues --   -0.53103  -0.52915  -0.52423  -0.52160  -0.51998
 Alpha  occ. eigenvalues --   -0.51764  -0.51556  -0.51360  -0.50893  -0.50520
 Alpha  occ. eigenvalues --   -0.50205  -0.49594  -0.49187  -0.48949  -0.48557
 Alpha  occ. eigenvalues --   -0.48079  -0.47834  -0.47503  -0.46538  -0.46221
 Alpha  occ. eigenvalues --   -0.45589  -0.44471  -0.43823  -0.43134  -0.42943
 Alpha  occ. eigenvalues --   -0.42317  -0.41781  -0.40793  -0.40659  -0.39701
 Alpha  occ. eigenvalues --   -0.39315  -0.38407  -0.37341  -0.36674  -0.36082
 Alpha  occ. eigenvalues --   -0.34787  -0.32594
 Alpha virt. eigenvalues --    0.00140   0.02321   0.04936   0.08453   0.11045
 Alpha virt. eigenvalues --    0.11728   0.12075   0.13768   0.14454   0.14808
 Alpha virt. eigenvalues --    0.15436   0.15644   0.17120   0.17619   0.18599

 Mulliken charges:
               1
     1  F   -0.238816
     2  C    0.747775
     3  F   -0.247531
     4  C    0.544687
     5  F   -0.265856
     6  F   -0.246106
     7  C    0.146918
     8  F   -0.277752
     9  C    0.625542
    10  F   -0.265236
    11  C    0.524254
    12  O   -0.470438
    13  O   -0.447003
    14  F   -0.265650
    15  C    0.477436
    16  F   -0.268991
    17  C    0.535293
    18  F   -0.280934
    19  C    0.587674
    20  N   -0.556878
    21  C   -0.035069
    22  C   -0.210640
    23  C   -0.171951
    24  C   -0.188384
    25  C   -0.176122
    26  C   -0.175432
    27  C   -0.179358
    28  C   -0.317352
    29  O   -0.503213
    30  F   -0.271328
    31  O   -0.495350
    32  H    0.360306
    33  H    0.286073
    34  H    0.144013
    35  H    0.121034
    36  H    0.112510
    37  H    0.102566
    38  H    0.099529
    39  H    0.095997
    40  H    0.093750
    41  H    0.092927
    42  H    0.098654
    43  H    0.086554
    44  H    0.088608
    45  H    0.092454
    46  H    0.091166
    47  H    0.089669
    48  H    0.101378
    49  H    0.106078
    50  H    0.102544
 Sum of Mulliken charges =   0.00000

 Dipole moment (field-independent basis, Debye):
    X=              4.7735    Y=             -1.9578    Z=              0.2937  Tot=              5.1677
 Quadrupole moment (field-independent basis, Debye-Ang):
   XX=           -192.0699   YY=           -167.9569   ZZ=           -179.0043
   XY=             14.4818   XZ=             -0.9348   YZ=              4.5864

 Normal termination of Gaussian 09 at Mon Feb  3 22:00:23 2025.
