 Gaussian 09, Revision D.01,
 Gaussian 09:  ES64L-G09RevD.01 24-Apr-2013

 ----------------------------------------------------------------------
 #p CAM-B3LYP/6-31G(d,p) opt SCRF=(PCM,Solvent=Generic,Read) NoSymm out
 =wfn
 ----------------------------------------------------------------------

 --------------
 Title AEP1_neu
 --------------
 Symbolic Z-matrix:
 Charge =  0 Multiplicity = 1

 SCF Done:  E(RCAM-B3LYP) =  -1989.34350127     A.U. after   13 cycles
 SCF Done:  E(RCAM-B3LYP) =  -1989.36424892     A.U. after   11 cycles
 SCF Done:  E(RCAM-B3LYP) =  -1989.37137559     A.U. after   12 cycles
 SCF Done:  E(RCAM-B3LYP) =  -1989.37330923     A.U. after   11 cycles
 SCF Done:  E(RCAM-B3LYP) =  -1989.37375331     A.U. after   12 cycles
 SCF Done:  E(RCAM-B3LYP) =  -1989.37462653     A.U. after   11 cycles
 SCF Done:  E(RCAM-B3LYP) =  -1989.37532560     A.U. after   11 cycles
 SCF Done:  E(RCAM-B3LYP) =  -1989.37529920     A.U. after   11 cycles
 SCF Done:  E(RCAM-B3LYP) =  -1989.37567989     A.U. after   11 cycles
 SCF Done:  E(RCAM-B3LYP) =  -1989.37574380     A.U. after   10 cycles
 SCF Done:  E(RCAM-B3LYP) =  -1989.37574837     A.U. after   10 cycles
 SCF Done:  E(RCAM-B3LYP) =  -1989.37575815     A.U. after   10 cycles
 SCF Done:  E(RCAM-B3LYP) =  -1989.37576059     A.U. after    9 cycles
 SCF Done:  E(RCAM-B3LYP) =  -1989.37576188     A.U. after    8 cycles
 SCF Done:  E(RCAM-B3LYP) =  -1989.37576304     A.U. after    7 cycles
 SCF Done:  E(RCAM-B3LYP) =  -1989.37576412     A.U. after    8 cycles
 SCF Done:  E(RCAM-B3LYP) =  -1989.37576447     A.U. after    8 cycles
 SCF Done:  E(RCAM-B3LYP) =  -1989.37576455     A.U. after    7 cycles
 SCF Done:  E(RCAM-B3LYP) =  -1989.37576458     A.U. after    6 cycles
 Optimization completed.
    -- Stationary point found.

                          Input orientation:
 ---------------------------------------------------------------------
 Center     Atomic      Atomic             Coordinates (Angstroms)
 Number     Number       Type             X           Y           Z
 ---------------------------------------------------------------------
      1          9           0       -4.019853    3.394711   -1.117489
      2          6           0       -3.428665    2.276267   -1.537145
      3          9           0       -2.804821    2.539662   -2.687173
      4          6           0       -4.456647    1.126741   -1.706785
      5          9           0       -4.209469    0.447515   -2.832172
      6          9           0       -5.711904    1.613881   -1.754851
      7          6           0       -4.202928    0.213996   -0.486667
      8          9           0       -4.381816   -1.089984   -0.799380
      9          6           0       -5.132997    0.577810    0.687020
     10          9           0       -4.854595   -0.229378    1.734819
     11          6           0       -6.629332    0.370578    0.375610
     12          8           0       -7.347002    1.436707    0.703820
     13          8           0       -7.053712   -0.663439   -0.061659
     14          9           0       -4.885236    1.856463    1.038175
     15          6           0       -2.688606    0.515016   -0.276234
     16          9           0       -2.034954   -0.259956   -1.200667
     17          6           0       -2.019668    0.193991    1.066869
     18          9           0       -2.483264    1.021110    2.018841
     19          6           0       -0.482465    0.323359    0.993872
     20          7           0        0.181916   -0.839060    1.079476
     21          6           0        1.630870   -0.879653    0.960804
     22          6           0        2.079784   -0.934245   -0.512691
     23          7           0        3.502272   -0.833445   -0.737027
     24          6           0        4.278393   -1.994571   -0.319295
     25          6           0        5.762549   -1.726200   -0.536593
     26          6           0        6.258398   -0.582577    0.369999
     27          6           0        5.119620    0.393908    0.712221
     28          6           0        4.107390    0.469430   -0.430132
     29          8           0        0.014697    1.428151    0.877895
     30          9           0       -2.378508   -1.083380    1.381148
     31          8           0       -2.523901    1.855964   -0.579243
     32          1           0       -8.279990    1.229805    0.524928
     33          1           0       -0.347896   -1.694398    1.143361
     34          1           0        1.992702   -1.743675    1.521160
     35          1           0        2.022121    0.022114    1.435976
     36          1           0        1.719887   -1.869993   -0.957962
     37          1           0        1.577370   -0.119144   -1.043591
     38          1           0        3.953726   -2.858272   -0.911939
     39          1           0        4.120167   -2.267182    0.740764
     40          1           0        5.905118   -1.462858   -1.589751
     41          1           0        6.336957   -2.639410   -0.357880
     42          1           0        7.071872   -0.048725   -0.131161
     43          1           0        6.680003   -0.989071    1.294775
     44          1           0        5.515593    1.391245    0.925789
     45          1           0        4.603993    0.063858    1.621037
     46          1           0        4.610016    0.865323   -1.324353
     47          1           0        3.312811    1.181011   -0.185559
 ---------------------------------------------------------------------

 Alpha  occ. eigenvalues --  -24.83586 -24.82856 -24.82433 -24.82240 -24.82106
 Alpha  occ. eigenvalues --  -24.82089 -24.82034 -24.81543 -24.81468 -24.81404
 Alpha  occ. eigenvalues --  -19.31213 -19.30437 -19.24906 -19.21004 -14.45467
 Alpha  occ. eigenvalues --  -14.38742 -10.51913 -10.48136 -10.48058 -10.46642
 Alpha  occ. eigenvalues --  -10.46134 -10.43691 -10.41865 -10.38897 -10.29849
 Alpha  occ. eigenvalues --  -10.28220 -10.27670 -10.27378 -10.25051 -10.25026
 Alpha  occ. eigenvalues --  -10.24986  -1.40599  -1.38408  -1.38084  -1.37336
 Alpha  occ. eigenvalues --   -1.35036  -1.33286  -1.33012  -1.31785  -1.31600
 Alpha  occ. eigenvalues --   -1.31150  -1.22750  -1.21714  -1.14154  -1.13711
 Alpha  occ. eigenvalues --   -1.02917  -1.00226  -0.94697  -0.90517  -0.87939
 Alpha  occ. eigenvalues --   -0.86115  -0.84010  -0.82887  -0.80783  -0.77724
 Alpha  occ. eigenvalues --   -0.76071  -0.74241  -0.73828  -0.70918  -0.70762
 Alpha  occ. eigenvalues --   -0.70145  -0.69387  -0.68340  -0.67805  -0.67261
 Alpha  occ. eigenvalues --   -0.66993  -0.66651  -0.65957  -0.65455  -0.64332
 Alpha  occ. eigenvalues --   -0.63874  -0.63219  -0.62248  -0.59943  -0.58617
 Alpha  occ. eigenvalues --   -0.57694  -0.57356  -0.56394  -0.56047  -0.55705
 Alpha  occ. eigenvalues --   -0.55292  -0.55181  -0.54782  -0.54400  -0.54058
 Alpha  occ. eigenvalues --   -0.53888  -0.53234  -0.52744  -0.52337  -0.51877
 Alpha  occ. eigenvalues --   -0.51643  -0.51254  -0.51101  -0.50869  -0.50571
 Alpha  occ. eigenvalues --   -0.50379  -0.50057  -0.49459  -0.49286  -0.48710
 Alpha  occ. eigenvalues --   -0.48332  -0.48005  -0.47711  -0.46102  -0.45912
 Alpha  occ. eigenvalues --   -0.45463  -0.44589  -0.44387  -0.43926  -0.43548
 Alpha  occ. eigenvalues --   -0.42162  -0.41609  -0.41221  -0.40597  -0.38764
 Alpha  occ. eigenvalues --   -0.37216  -0.37178  -0.36851  -0.34179  -0.33597
 Alpha  occ. eigenvalues --   -0.25344
 Alpha virt. eigenvalues --    0.02043   0.03953   0.06480   0.10328   0.11333
 Alpha virt. eigenvalues --    0.12242   0.13433   0.14334   0.15206   0.15691
 Alpha virt. eigenvalues --    0.16331   0.16874   0.17504   0.18367   0.19602

 Mulliken charges:
               1
     1  F   -0.241927
     2  C    0.785125
     3  F   -0.244356
     4  C    0.498181
     5  F   -0.254345
     6  F   -0.261756
     7  C    0.184622
     8  F   -0.280146
     9  C    0.605783
    10  F   -0.271181
    11  C    0.529035
    12  O   -0.463693
    13  O   -0.433580
    14  F   -0.265852
    15  C    0.464068
    16  F   -0.293390
    17  C    0.566122
    18  F   -0.263425
    19  C    0.542800
    20  N   -0.533889
    21  C   -0.066351
    22  C   -0.041697
    23  N   -0.429385
    24  C   -0.024449
    25  C   -0.207592
    26  C   -0.182765
    27  C   -0.199312
    28  C   -0.047406
    29  O   -0.515029
    30  F   -0.294025
    31  O   -0.472166
    32  H    0.357565
    33  H    0.292601
    34  H    0.118735
    35  H    0.144152
    36  H    0.097506
    37  H    0.121639
    38  H    0.095710
    39  H    0.069687
    40  H    0.110909
    41  H    0.098368
    42  H    0.100684
    43  H    0.097278
    44  H    0.100066
    45  H    0.097401
    46  H    0.098329
    47  H    0.111352
 Sum of Mulliken charges =   0.00000

 Dipole moment (field-independent basis, Debye):
    X=              0.0321    Y=             -2.2764    Z=              1.3065  Tot=              2.6249
 Quadrupole moment (field-independent basis, Debye-Ang):
   XX=           -140.1458   YY=           -175.7378   ZZ=           -174.9756
   XY=            -12.6741   XZ=             -0.0600   YZ=             -5.4930

 Normal termination of Gaussian 09 at Wed Feb  5 05:47:49 2025.
