 Gaussian 09, Revision D.01,
 Gaussian 09:  ES64L-G09RevD.01 24-Apr-2013

 ----------------------------------------------------------------------
 #p CAM-B3LYP/6-31G(d,p) SCRF=(PCM,Solvent=Generic,Read) NoSymm out=wfn
 ----------------------------------------------------------------------

 -------------------
 Title A1342961131_0
 -------------------
 Symbolic Z-matrix:
 Charge =  0 Multiplicity = 1

                          Input orientation:
 ---------------------------------------------------------------------
 Center     Atomic      Atomic             Coordinates (Angstroms)
 Number     Number       Type             X           Y           Z
 ---------------------------------------------------------------------
      1          6           0       -0.508733   -3.312614    2.678828
      2          7           0       -0.508516   -2.274621    1.661790
      3          6           0        0.572294   -1.424227    1.605686
      4          8           0        1.556762   -1.554503    2.333256
      5          7           0        0.469776   -0.380007    0.711829
      6          6           0        1.601848    0.556701    0.603629
      7          6           0        2.644329    0.081363   -0.420927
      8          9           0        1.970045   -0.361199   -1.529535
      9          9           0        3.283184   -1.019201    0.061863
     10          6           0        3.675094    1.132991   -0.862540
     11          9           0        2.987280    2.214401   -1.339799
     12          8           0        4.391265    0.582823   -1.977714
     13          6           0        5.454942    1.388470   -2.409560
     14          9           0        5.789986    1.027396   -3.661817
     15          9           0        6.512650    1.184262   -1.606151
     16          9           0        5.119653    2.688143   -2.406126
     17          6           0        4.517201    1.545737    0.355210
     18          9           0        5.395823    2.529381    0.058421
     19          9           0        5.226475    0.512846    0.855708
     20          9           0        3.743788    2.027161    1.356264
     21          6           0       -0.604803   -0.209175   -0.136782
     22          8           0       -0.682778    0.787080   -0.855331
     23          7           0       -1.575742   -1.176100   -0.100031
     24          6           0       -2.764280   -0.980849   -0.917062
     25          9           0       -2.385805   -0.503275   -2.138612
     26          9           0       -3.292664   -2.203947   -1.211113
     27          6           0       -3.849036   -0.056403   -0.304537
     28          9           0       -4.347131   -0.631667    0.828723
     29          8           0       -3.246907    1.168552    0.131307
     30          6           0       -4.182184    2.156495    0.472996
     31          9           0       -4.678882    2.706755   -0.645732
     32          9           0       -5.172305    1.648367    1.221934
     33          9           0       -3.550263    3.110949    1.181487
     34          6           0       -4.951150    0.037961   -1.369450
     35          9           0       -4.534572    0.703638   -2.469876
     36          9           0       -5.400705   -1.169858   -1.773140
     37          9           0       -6.035108    0.704826   -0.902317
     38          6           0       -1.662827   -2.071085    0.935576
     39          8           0       -2.713046   -2.640880    1.226855
     40          1           0        0.501570   -3.700648    2.839320
     41          1           0       -1.162600   -4.141341    2.391132
     42          1           0       -0.874469   -2.877587    3.614387
     43          1           0        2.052993    0.651546    1.595234
     44          1           0        1.217546    1.541344    0.316716
 ---------------------------------------------------------------------

 SCF Done:  E(RCAM-B3LYP) =  -2835.13706790     A.U. after   13 cycles

 Alpha  occ. eigenvalues --  -24.84548 -24.83720 -24.83698 -24.83615 -24.83580
 Alpha  occ. eigenvalues --  -24.83483 -24.83398 -24.83326 -24.83295 -24.83190
 Alpha  occ. eigenvalues --  -24.82985 -24.82895 -24.82772 -24.82730 -24.82705
 Alpha  occ. eigenvalues --  -24.82695 -24.81302 -24.81140 -19.33064 -19.32643
 Alpha  occ. eigenvalues --  -19.23618 -19.23492 -19.23173 -14.52479 -14.50914
 Alpha  occ. eigenvalues --  -14.50116 -10.59645 -10.59371 -10.55855 -10.55363
 Alpha  occ. eigenvalues --  -10.53189 -10.48939 -10.48242 -10.47630 -10.45586
 Alpha  occ. eigenvalues --  -10.45335 -10.44510 -10.34496 -10.31016  -1.43296
 Alpha  occ. eigenvalues --   -1.43236  -1.42225  -1.41722  -1.38913  -1.37071
 Alpha  occ. eigenvalues --   -1.35599  -1.35391  -1.33660  -1.33622  -1.33383
 Alpha  occ. eigenvalues --   -1.33349  -1.33171  -1.32736  -1.32647  -1.32110
 Alpha  occ. eigenvalues --   -1.31440  -1.30077  -1.22262  -1.20592  -1.20193
 Alpha  occ. eigenvalues --   -1.17125  -1.16904  -1.09149  -1.07051  -1.05720
 Alpha  occ. eigenvalues --   -0.93953  -0.93380  -0.88238  -0.84872  -0.83305
 Alpha  occ. eigenvalues --   -0.82744  -0.81985  -0.79956  -0.78005  -0.76640
 Alpha  occ. eigenvalues --   -0.75425  -0.74912  -0.73560  -0.73047  -0.72576
 Alpha  occ. eigenvalues --   -0.71959  -0.70956  -0.70497  -0.70389  -0.69824
 Alpha  occ. eigenvalues --   -0.69607  -0.68954  -0.68534  -0.67848  -0.67364
 Alpha  occ. eigenvalues --   -0.66997  -0.66452  -0.65957  -0.64544  -0.64000
 Alpha  occ. eigenvalues --   -0.63690  -0.61050  -0.59981  -0.59957  -0.59563
 Alpha  occ. eigenvalues --   -0.57785  -0.57580  -0.57158  -0.57133  -0.56813
 Alpha  occ. eigenvalues --   -0.56233  -0.56190  -0.56033  -0.55798  -0.55606
 Alpha  occ. eigenvalues --   -0.55366  -0.55293  -0.54865  -0.54724  -0.54349
 Alpha  occ. eigenvalues --   -0.54044  -0.53970  -0.53519  -0.53336  -0.53254
 Alpha  occ. eigenvalues --   -0.52875  -0.52747  -0.52269  -0.52209  -0.51787
 Alpha  occ. eigenvalues --   -0.51655  -0.51445  -0.51205  -0.50939  -0.50695
 Alpha  occ. eigenvalues --   -0.50420  -0.50408  -0.49962  -0.49895  -0.49748
 Alpha  occ. eigenvalues --   -0.49523  -0.49054  -0.48915  -0.48839  -0.48212
 Alpha  occ. eigenvalues --   -0.47910  -0.47372  -0.47015  -0.45742  -0.45036
 Alpha  occ. eigenvalues --   -0.44567  -0.43717  -0.39861  -0.39379  -0.38136
 Alpha  occ. eigenvalues --   -0.36910  -0.35978  -0.35453
 Alpha virt. eigenvalues --    0.01265   0.01834   0.05824   0.07028   0.08419
 Alpha virt. eigenvalues --    0.09086   0.11875   0.13950   0.14609   0.15636
 Alpha virt. eigenvalues --    0.16350   0.17464   0.17791   0.18759   0.19261

 Mulliken charges:
               1
     1  C   -0.184036
     2  N   -0.565189
     3  C    0.831070
     4  O   -0.519639
     5  N   -0.598613
     6  C   -0.119759
     7  C    0.587423
     8  F   -0.283949
     9  F   -0.269844
    10  C    0.414520
    11  F   -0.268870
    12  O   -0.515408
    13  C    0.994591
    14  F   -0.239166
    15  F   -0.246519
    16  F   -0.244691
    17  C    0.809661
    18  F   -0.250531
    19  F   -0.235534
    20  F   -0.243259
    21  C    0.854974
    22  O   -0.509752
    23  N   -0.638848
    24  C    0.761313
    25  F   -0.254351
    26  F   -0.258566
    27  C    0.437253
    28  F   -0.255006
    29  O   -0.507506
    30  C    0.996100
    31  F   -0.242743
    32  F   -0.242745
    33  F   -0.240516
    34  C    0.812526
    35  F   -0.245841
    36  F   -0.243786
    37  F   -0.260193
    38  C    0.817374
    39  O   -0.498547
    40  H    0.165841
    41  H    0.163159
    42  H    0.157428
    43  H    0.190447
    44  H    0.189726
 Sum of Mulliken charges =   0.00000

 Dipole moment (field-independent basis, Debye):
    X=              0.8627    Y=             -0.2513    Z=              2.6142  Tot=              2.7643
 Quadrupole moment (field-independent basis, Debye-Ang):
   XX=           -221.5437   YY=           -202.1202   ZZ=           -207.7224
   XY=              0.0307   XZ=             -2.8544   YZ=              0.0785

 Normal termination of Gaussian 09 at Sun Mar  3 17:46:53 2024.
