 Gaussian 09, Revision D.01,
 Gaussian 09:  ES64L-G09RevD.01 24-Apr-2013

 ----------------------------------------------------------------------
 #p CAM-B3LYP/6-31G(d,p) SCRF=(PCM,Solvent=Generic,Read) NoSymm out=wfn
 ----------------------------------------------------------------------

 --------------------
 Title A1342961131_p1
 --------------------
 Symbolic Z-matrix:
 Charge =  1 Multiplicity = 2

                          Input orientation:
 ---------------------------------------------------------------------
 Center     Atomic      Atomic             Coordinates (Angstroms)
 Number     Number       Type             X           Y           Z
 ---------------------------------------------------------------------
      1          6           0       -0.508733   -3.312614    2.678828
      2          7           0       -0.508516   -2.274621    1.661790
      3          6           0        0.572294   -1.424227    1.605686
      4          8           0        1.556762   -1.554503    2.333256
      5          7           0        0.469776   -0.380007    0.711829
      6          6           0        1.601848    0.556701    0.603629
      7          6           0        2.644329    0.081363   -0.420927
      8          9           0        1.970045   -0.361199   -1.529535
      9          9           0        3.283184   -1.019201    0.061863
     10          6           0        3.675094    1.132991   -0.862540
     11          9           0        2.987280    2.214401   -1.339799
     12          8           0        4.391265    0.582823   -1.977714
     13          6           0        5.454942    1.388470   -2.409560
     14          9           0        5.789986    1.027396   -3.661817
     15          9           0        6.512650    1.184262   -1.606151
     16          9           0        5.119653    2.688143   -2.406126
     17          6           0        4.517201    1.545737    0.355210
     18          9           0        5.395823    2.529381    0.058421
     19          9           0        5.226475    0.512846    0.855708
     20          9           0        3.743788    2.027161    1.356264
     21          6           0       -0.604803   -0.209175   -0.136782
     22          8           0       -0.682778    0.787080   -0.855331
     23          7           0       -1.575742   -1.176100   -0.100031
     24          6           0       -2.764280   -0.980849   -0.917062
     25          9           0       -2.385805   -0.503275   -2.138612
     26          9           0       -3.292664   -2.203947   -1.211113
     27          6           0       -3.849036   -0.056403   -0.304537
     28          9           0       -4.347131   -0.631667    0.828723
     29          8           0       -3.246907    1.168552    0.131307
     30          6           0       -4.182184    2.156495    0.472996
     31          9           0       -4.678882    2.706755   -0.645732
     32          9           0       -5.172305    1.648367    1.221934
     33          9           0       -3.550263    3.110949    1.181487
     34          6           0       -4.951150    0.037961   -1.369450
     35          9           0       -4.534572    0.703638   -2.469876
     36          9           0       -5.400705   -1.169858   -1.773140
     37          9           0       -6.035108    0.704826   -0.902317
     38          6           0       -1.662827   -2.071085    0.935576
     39          8           0       -2.713046   -2.640880    1.226855
     40          1           0        0.501570   -3.700648    2.839320
     41          1           0       -1.162600   -4.141341    2.391132
     42          1           0       -0.874469   -2.877587    3.614387
     43          1           0        2.052993    0.651546    1.595234
     44          1           0        1.217546    1.541344    0.316716
 ---------------------------------------------------------------------

 SCF Done:  E(UCAM-B3LYP) =  -2834.80382270     A.U. after   65 cycles

 Alpha  occ. eigenvalues --  -24.87353 -24.87302 -24.87190 -24.86144 -24.86129
 Alpha  occ. eigenvalues --  -24.85972 -24.85939 -24.85792 -24.85728 -24.85623
 Alpha  occ. eigenvalues --  -24.85618 -24.85516 -24.85486 -24.85369 -24.85294
 Alpha  occ. eigenvalues --  -24.85052 -24.84906 -24.84905 -19.42381 -19.36240
 Alpha  occ. eigenvalues --  -19.35116 -19.35067 -19.33169 -14.61867 -14.60033
 Alpha  occ. eigenvalues --  -14.59608 -10.62094 -10.61270 -10.58411 -10.57985
 Alpha  occ. eigenvalues --  -10.57907 -10.56253 -10.54570 -10.53396 -10.52461
 Alpha  occ. eigenvalues --  -10.52454 -10.51419 -10.41195 -10.36779  -1.45600
 Alpha  occ. eigenvalues --   -1.45394  -1.44317  -1.44306  -1.43048  -1.41397
 Alpha  occ. eigenvalues --   -1.38934  -1.38323  -1.36271  -1.36171  -1.35823
 Alpha  occ. eigenvalues --   -1.35522  -1.35351  -1.35155  -1.34679  -1.34575
 Alpha  occ. eigenvalues --   -1.34440  -1.34319  -1.33901  -1.29568  -1.26423
 Alpha  occ. eigenvalues --   -1.23715  -1.22605  -1.19578  -1.16154  -1.14995
 Alpha  occ. eigenvalues --   -0.98380  -0.97185  -0.93886  -0.91509  -0.91128
 Alpha  occ. eigenvalues --   -0.86719  -0.85163  -0.84929  -0.83886  -0.82695
 Alpha  occ. eigenvalues --   -0.81285  -0.79339  -0.78253  -0.76404  -0.75499
 Alpha  occ. eigenvalues --   -0.75306  -0.74037  -0.73550  -0.73108  -0.72853
 Alpha  occ. eigenvalues --   -0.71923  -0.71636  -0.71351  -0.71082  -0.70925
 Alpha  occ. eigenvalues --   -0.70703  -0.70093  -0.69790  -0.69280  -0.68738
 Alpha  occ. eigenvalues --   -0.68470  -0.68025  -0.67185  -0.65318  -0.64483
 Alpha  occ. eigenvalues --   -0.64038  -0.63024  -0.62857  -0.62573  -0.62374
 Alpha  occ. eigenvalues --   -0.61111  -0.60103  -0.59935  -0.59701  -0.59401
 Alpha  occ. eigenvalues --   -0.59308  -0.58948  -0.58791  -0.58522  -0.58233
 Alpha  occ. eigenvalues --   -0.57806  -0.57768  -0.57472  -0.57045  -0.57032
 Alpha  occ. eigenvalues --   -0.56442  -0.56392  -0.55934  -0.55740  -0.55456
 Alpha  occ. eigenvalues --   -0.55224  -0.55137  -0.54557  -0.54440  -0.54271
 Alpha  occ. eigenvalues --   -0.54080  -0.54028  -0.53758  -0.53577  -0.53205
 Alpha  occ. eigenvalues --   -0.52924  -0.52855  -0.52467  -0.52413  -0.52304
 Alpha  occ. eigenvalues --   -0.51827  -0.51284  -0.51215  -0.51129  -0.49796
 Alpha  occ. eigenvalues --   -0.49310  -0.48897  -0.47797  -0.47580  -0.46579
 Alpha  occ. eigenvalues --   -0.46280  -0.45575  -0.44248
 Alpha virt. eigenvalues --   -0.08858  -0.06469   0.01730   0.02117   0.03555
 Alpha virt. eigenvalues --    0.04712   0.06090   0.09220   0.09256   0.09808
 Alpha virt. eigenvalues --    0.11031   0.12692   0.13629   0.14025   0.14632

  Beta  occ. eigenvalues --  -24.87330 -24.87301 -24.87178 -24.86139 -24.86129
  Beta  occ. eigenvalues --  -24.85952 -24.85939 -24.85792 -24.85728 -24.85623
  Beta  occ. eigenvalues --  -24.85618 -24.85512 -24.85486 -24.85369 -24.85294
  Beta  occ. eigenvalues --  -24.85052 -24.84906 -24.84905 -19.40851 -19.36238
  Beta  occ. eigenvalues --  -19.35066 -19.34465 -19.32780 -14.61623 -14.60023
  Beta  occ. eigenvalues --  -14.59540 -10.62094 -10.61270 -10.58411 -10.57986
  Beta  occ. eigenvalues --  -10.57907 -10.56385 -10.54659 -10.53433 -10.52463
  Beta  occ. eigenvalues --  -10.52441 -10.51416 -10.41179 -10.36766  -1.45599
  Beta  occ. eigenvalues --   -1.45393  -1.44316  -1.44296  -1.43027  -1.41371
  Beta  occ. eigenvalues --   -1.38923  -1.38320  -1.36235  -1.36169  -1.35823
  Beta  occ. eigenvalues --   -1.35520  -1.35351  -1.35154  -1.34674  -1.34564
  Beta  occ. eigenvalues --   -1.34426  -1.34318  -1.32078  -1.28233  -1.25679
  Beta  occ. eigenvalues --   -1.23703  -1.22602  -1.18354  -1.15706  -1.14490
  Beta  occ. eigenvalues --   -0.98325  -0.97148  -0.93806  -0.91171  -0.90712
  Beta  occ. eigenvalues --   -0.86456  -0.85099  -0.84861  -0.83375  -0.82061
  Beta  occ. eigenvalues --   -0.81144  -0.79300  -0.78228  -0.76370  -0.75493
  Beta  occ. eigenvalues --   -0.75273  -0.74002  -0.73516  -0.73069  -0.72825
  Beta  occ. eigenvalues --   -0.71853  -0.71568  -0.71297  -0.71076  -0.70824
  Beta  occ. eigenvalues --   -0.70595  -0.69984  -0.69303  -0.69166  -0.68464
  Beta  occ. eigenvalues --   -0.68366  -0.67757  -0.66845  -0.65001  -0.63761
  Beta  occ. eigenvalues --   -0.63642  -0.62824  -0.62587  -0.62521  -0.61661
  Beta  occ. eigenvalues --   -0.60455  -0.59973  -0.59906  -0.59495  -0.59306
  Beta  occ. eigenvalues --   -0.59222  -0.58910  -0.58781  -0.58377  -0.58180
  Beta  occ. eigenvalues --   -0.57760  -0.57684  -0.57338  -0.56991  -0.56890
  Beta  occ. eigenvalues --   -0.56394  -0.55845  -0.55648  -0.55585  -0.55132
  Beta  occ. eigenvalues --   -0.54973  -0.54472  -0.54414  -0.54166  -0.54026
  Beta  occ. eigenvalues --   -0.53916  -0.53766  -0.53542  -0.53196  -0.52888
  Beta  occ. eigenvalues --   -0.52845  -0.52446  -0.52408  -0.52294  -0.51777
  Beta  occ. eigenvalues --   -0.51270  -0.51194  -0.50909  -0.49427  -0.48600
  Beta  occ. eigenvalues --   -0.47846  -0.47492  -0.46576  -0.45611  -0.44635
  Beta  occ. eigenvalues --   -0.43899  -0.43112
  Beta virt. eigenvalues --   -0.30857  -0.08445  -0.06192   0.01747   0.02198
  Beta virt. eigenvalues --    0.03657   0.04734   0.06165   0.09307   0.09355
  Beta virt. eigenvalues --    0.09973   0.11067   0.12876   0.13693   0.14056

 Mulliken charges and spin densities:
               1          2
     1  C   -0.220860   0.003071
     2  N   -0.563597   0.032457
     3  C    0.943131  -0.077102
     4  O   -0.266325   0.579749
     5  N   -0.577203   0.115858
     6  C   -0.167948   0.003122
     7  C    0.596088   0.005165
     8  F   -0.273084   0.001103
     9  F   -0.260532   0.004809
    10  C    0.421039   0.001323
    11  F   -0.262337   0.000116
    12  O   -0.511815   0.000130
    13  C    0.999283   0.000060
    14  F   -0.234951   0.000035
    15  F   -0.243432   0.000014
    16  F   -0.242084   0.000001
    17  C    0.812813   0.000033
    18  F   -0.243123   0.000072
    19  F   -0.232000   0.000005
    20  F   -0.243395   0.000250
    21  C    0.922868  -0.054543
    22  O   -0.379695   0.247204
    23  N   -0.639588   0.007530
    24  C    0.757016  -0.002029
    25  F   -0.240708   0.005236
    26  F   -0.242681   0.003048
    27  C    0.441960  -0.000254
    28  F   -0.249852   0.001120
    29  O   -0.516993   0.000370
    30  C    1.002414  -0.000035
    31  F   -0.237318   0.000002
    32  F   -0.238271   0.000010
    33  F   -0.236909   0.000001
    34  C    0.821452  -0.000053
    35  F   -0.241612   0.000029
    36  F   -0.239237   0.000003
    37  F   -0.253123  -0.000030
    38  C    0.880963  -0.025196
    39  O   -0.398196   0.145614
    40  H    0.195043  -0.000553
    41  H    0.205588   0.001211
    42  H    0.200392  -0.000089
    43  H    0.224165   0.002350
    44  H    0.232657  -0.001217
 Sum of Mulliken charges =   1.00000   1.00000

 Dipole moment (field-independent basis, Debye):
    X=              0.8632    Y=             -5.3351    Z=              7.4156  Tot=              9.1761
 Quadrupole moment (field-independent basis, Debye-Ang):
   XX=           -197.2031   YY=           -182.6071   ZZ=           -189.1226
   XY=              3.2414   XZ=              0.8936   YZ=            -12.6458

 Normal termination of Gaussian 09 at Sun Mar  3 17:51:56 2024.
