 Gaussian 09, Revision D.01,
 Gaussian 09:  ES64L-G09RevD.01 24-Apr-2013

 ----------------------------------------------------------------------
 #p CAM-B3LYP/6-31G(d,p) SCRF=(PCM,Solvent=Generic,Read) NoSymm out=wfn
 ----------------------------------------------------------------------

 -------------------
 Title A1462740671_0
 -------------------
 Symbolic Z-matrix:
 Charge =  0 Multiplicity = 1

                          Input orientation:
 ---------------------------------------------------------------------
 Center     Atomic      Atomic             Coordinates (Angstroms)
 Number     Number       Type             X           Y           Z
 ---------------------------------------------------------------------
      1          6           0        2.448102   -2.339884    0.835970
      2          6           0        1.273044   -1.682323    0.823702
      3          7           0        0.099663   -2.375463    0.538015
      4          6           0        0.125027   -3.798131    0.180854
      5          6           0       -1.152537   -1.780649    0.607120
      6          8           0       -2.180784   -2.399475    0.338702
      7          7           0       -1.184714   -0.461897    0.974710
      8          6           0       -2.490786    0.169385    1.070403
      9          9           0       -3.270585   -0.636796    1.869120
     10          9           0       -2.407651    1.313974    1.818100
     11          6           0       -3.300316    0.482207   -0.220079
     12          9           0       -3.521919   -0.664683   -0.924759
     13          8           0       -4.598956    0.945068    0.196643
     14          6           0       -5.394402    1.409199   -0.859582
     15          9           0       -5.022723    2.662567   -1.170489
     16          9           0       -5.296585    0.618340   -1.939082
     17          9           0       -6.677560    1.432626   -0.452882
     18          6           0       -2.483758    1.444940   -1.081151
     19          9           0       -3.099177    1.709588   -2.259148
     20          9           0       -1.282409    0.915381   -1.410961
     21          9           0       -2.274742    2.630267   -0.476217
     22          6           0       -0.063221    0.322307    1.004461
     23          8           0       -0.144533    1.547182    0.960947
     24          7           0        1.164238   -0.313546    1.058959
     25          6           0        2.323100    0.570114    1.324013
     26          9           0        1.968783    1.586506    2.162636
     27          9           0        3.216861   -0.130536    2.102789
     28          6           0        3.117906    1.126891    0.109856
     29          9           0        4.251904    1.719614    0.610284
     30          8           0        3.576261    0.023425   -0.688346
     31          6           0        4.235239    0.417169   -1.863669
     32          9           0        4.940207   -0.634816   -2.321109
     33          9           0        3.320191    0.750811   -2.787754
     34          9           0        5.073984    1.438939   -1.643288
     35          6           0        2.283798    2.186688   -0.610621
     36          9           0        1.835298    3.158748    0.205879
     37          9           0        1.230512    1.629290   -1.248013
     38          9           0        3.014557    2.813185   -1.567720
     39          1           0        3.413255   -1.891968    1.033545
     40          1           0        2.535515   -3.405923    0.654421
     41          1           0       -0.862926   -4.186550   -0.081305
     42          1           0        0.772128   -3.944412   -0.690286
     43          1           0        0.490709   -4.377361    1.035034
 ---------------------------------------------------------------------

 SCF Done:  E(RCAM-B3LYP) =  -2759.85517079     A.U. after   13 cycles

 Alpha  occ. eigenvalues --  -24.83902 -24.83879 -24.83624 -24.83494 -24.83394
 Alpha  occ. eigenvalues --  -24.83350 -24.83227 -24.83114 -24.83080 -24.82984
 Alpha  occ. eigenvalues --  -24.82977 -24.82849 -24.82736 -24.82710 -24.82631
 Alpha  occ. eigenvalues --  -24.82363 -24.82216 -24.81371 -19.33284 -19.32548
 Alpha  occ. eigenvalues --  -19.23101 -19.22402 -14.52145 -14.52000 -14.49220
 Alpha  occ. eigenvalues --  -10.59763 -10.59250 -10.55382 -10.55356 -10.53643
 Alpha  occ. eigenvalues --  -10.52831 -10.49112 -10.48682 -10.45658 -10.44312
 Alpha  occ. eigenvalues --  -10.38163 -10.30980 -10.26056  -1.43373  -1.42973
 Alpha  occ. eigenvalues --   -1.41760  -1.41643  -1.39017  -1.37944  -1.35270
 Alpha  occ. eigenvalues --   -1.35211  -1.33688  -1.33357  -1.33235  -1.33175
 Alpha  occ. eigenvalues --   -1.32842  -1.32740  -1.32134  -1.32048  -1.31396
 Alpha  occ. eigenvalues --   -1.30376  -1.21318  -1.20701  -1.19973  -1.16656
 Alpha  occ. eigenvalues --   -1.11109  -1.08114  -1.04921  -0.93693  -0.93086
 Alpha  occ. eigenvalues --   -0.87926  -0.85364  -0.83236  -0.82602  -0.82052
 Alpha  occ. eigenvalues --   -0.80281  -0.78193  -0.76374  -0.75599  -0.73806
 Alpha  occ. eigenvalues --   -0.73262  -0.72585  -0.72320  -0.71752  -0.71370
 Alpha  occ. eigenvalues --   -0.70615  -0.70182  -0.69550  -0.69374  -0.69248
 Alpha  occ. eigenvalues --   -0.68565  -0.68301  -0.66991  -0.66800  -0.66222
 Alpha  occ. eigenvalues --   -0.65900  -0.65130  -0.64195  -0.63366  -0.60952
 Alpha  occ. eigenvalues --   -0.59963  -0.59864  -0.58168  -0.57532  -0.57337
 Alpha  occ. eigenvalues --   -0.57145  -0.56914  -0.56629  -0.56234  -0.55799
 Alpha  occ. eigenvalues --   -0.55672  -0.55419  -0.55258  -0.55019  -0.54952
 Alpha  occ. eigenvalues --   -0.54533  -0.54163  -0.54033  -0.53744  -0.53341
 Alpha  occ. eigenvalues --   -0.53183  -0.52937  -0.52737  -0.52697  -0.52413
 Alpha  occ. eigenvalues --   -0.52084  -0.51886  -0.51651  -0.51574  -0.51357
 Alpha  occ. eigenvalues --   -0.50791  -0.50613  -0.50430  -0.50168  -0.50006
 Alpha  occ. eigenvalues --   -0.49955  -0.49557  -0.49226  -0.49036  -0.48843
 Alpha  occ. eigenvalues --   -0.48471  -0.48070  -0.47303  -0.46234  -0.46047
 Alpha  occ. eigenvalues --   -0.45510  -0.45329  -0.44511  -0.44049  -0.38920
 Alpha  occ. eigenvalues --   -0.37461  -0.36674  -0.35983  -0.28920
 Alpha virt. eigenvalues --    0.01827   0.03294   0.05677   0.06671   0.07145
 Alpha virt. eigenvalues --    0.08215   0.11352   0.13556   0.14242   0.15073
 Alpha virt. eigenvalues --    0.16257   0.17726   0.18081   0.18509   0.19907

 Mulliken charges:
               1
     1  C   -0.360656
     2  C    0.625187
     3  N   -0.598699
     4  C   -0.197494
     5  C    0.812940
     6  O   -0.518872
     7  N   -0.637298
     8  C    0.751912
     9  F   -0.269935
    10  F   -0.252632
    11  C    0.433647
    12  F   -0.252778
    13  O   -0.514414
    14  C    0.995734
    15  F   -0.246399
    16  F   -0.243702
    17  F   -0.240335
    18  C    0.816520
    19  F   -0.256416
    20  F   -0.251532
    21  F   -0.234678
    22  C    0.842389
    23  O   -0.508926
    24  N   -0.675277
    25  C    0.732594
    26  F   -0.243022
    27  F   -0.265545
    28  C    0.436906
    29  F   -0.269093
    30  O   -0.515053
    31  C    0.997060
    32  F   -0.240547
    33  F   -0.244415
    34  F   -0.239571
    35  C    0.824179
    36  F   -0.235585
    37  F   -0.246072
    38  F   -0.259941
    39  H    0.136215
    40  H    0.127889
    41  H    0.179523
    42  H    0.152243
    43  H    0.153951
 Sum of Mulliken charges =   0.00000

 Dipole moment (field-independent basis, Debye):
    X=              3.4356    Y=             -4.0371    Z=             -0.5312  Tot=              5.3277
 Quadrupole moment (field-independent basis, Debye-Ang):
   XX=           -210.4257   YY=           -195.8664   ZZ=           -202.9015
   XY=             -7.9785   XZ=              1.6995   YZ=             -2.2431

 Normal termination of Gaussian 09 at Sun Mar  3 17:37:35 2024.
