 Gaussian 09, Revision D.01,
 Gaussian 09:  ES64L-G09RevD.01 24-Apr-2013

 ----------------------------------------------------------------------
 #p CAM-B3LYP/6-31G(d,p) SCRF=(PCM,Solvent=Generic,Read) NoSymm out=wfn
 ----------------------------------------------------------------------

 --------------------
 Title A1462740671_p1
 --------------------
 Symbolic Z-matrix:
 Charge =  1 Multiplicity = 2

                          Input orientation:
 ---------------------------------------------------------------------
 Center     Atomic      Atomic             Coordinates (Angstroms)
 Number     Number       Type             X           Y           Z
 ---------------------------------------------------------------------
      1          6           0        2.448102   -2.339884    0.835970
      2          6           0        1.273044   -1.682323    0.823702
      3          7           0        0.099663   -2.375463    0.538015
      4          6           0        0.125027   -3.798131    0.180854
      5          6           0       -1.152537   -1.780649    0.607120
      6          8           0       -2.180784   -2.399475    0.338702
      7          7           0       -1.184714   -0.461897    0.974710
      8          6           0       -2.490786    0.169385    1.070403
      9          9           0       -3.270585   -0.636796    1.869120
     10          9           0       -2.407651    1.313974    1.818100
     11          6           0       -3.300316    0.482207   -0.220079
     12          9           0       -3.521919   -0.664683   -0.924759
     13          8           0       -4.598956    0.945068    0.196643
     14          6           0       -5.394402    1.409199   -0.859582
     15          9           0       -5.022723    2.662567   -1.170489
     16          9           0       -5.296585    0.618340   -1.939082
     17          9           0       -6.677560    1.432626   -0.452882
     18          6           0       -2.483758    1.444940   -1.081151
     19          9           0       -3.099177    1.709588   -2.259148
     20          9           0       -1.282409    0.915381   -1.410961
     21          9           0       -2.274742    2.630267   -0.476217
     22          6           0       -0.063221    0.322307    1.004461
     23          8           0       -0.144533    1.547182    0.960947
     24          7           0        1.164238   -0.313546    1.058959
     25          6           0        2.323100    0.570114    1.324013
     26          9           0        1.968783    1.586506    2.162636
     27          9           0        3.216861   -0.130536    2.102789
     28          6           0        3.117906    1.126891    0.109856
     29          9           0        4.251904    1.719614    0.610284
     30          8           0        3.576261    0.023425   -0.688346
     31          6           0        4.235239    0.417169   -1.863669
     32          9           0        4.940207   -0.634816   -2.321109
     33          9           0        3.320191    0.750811   -2.787754
     34          9           0        5.073984    1.438939   -1.643288
     35          6           0        2.283798    2.186688   -0.610621
     36          9           0        1.835298    3.158748    0.205879
     37          9           0        1.230512    1.629290   -1.248013
     38          9           0        3.014557    2.813185   -1.567720
     39          1           0        3.413255   -1.891968    1.033545
     40          1           0        2.535515   -3.405923    0.654421
     41          1           0       -0.862926   -4.186550   -0.081305
     42          1           0        0.772128   -3.944412   -0.690286
     43          1           0        0.490709   -4.377361    1.035034
 ---------------------------------------------------------------------

 SCF Done:  E(UCAM-B3LYP) =  -2759.60085861     A.U. after   21 cycles

 Alpha  occ. eigenvalues --  -24.88285 -24.87795 -24.86839 -24.86643 -24.86420
 Alpha  occ. eigenvalues --  -24.86352 -24.86222 -24.86144 -24.86000 -24.85835
 Alpha  occ. eigenvalues --  -24.85586 -24.85313 -24.85291 -24.85118 -24.85051
 Alpha  occ. eigenvalues --  -24.84987 -24.84797 -24.84631 -19.37236 -19.34853
 Alpha  occ. eigenvalues --  -19.30380 -19.29628 -14.61328 -14.61276 -14.58629
 Alpha  occ. eigenvalues --  -10.62715 -10.61065 -10.59260 -10.58551 -10.57962
 Alpha  occ. eigenvalues --  -10.56857 -10.53255 -10.52192 -10.51938 -10.51746
 Alpha  occ. eigenvalues --  -10.51711 -10.41439 -10.37392  -1.46117  -1.45038
 Alpha  occ. eigenvalues --   -1.44733  -1.43980  -1.43935  -1.41561  -1.38722
 Alpha  occ. eigenvalues --   -1.38065  -1.36699  -1.36295  -1.35970  -1.35922
 Alpha  occ. eigenvalues --   -1.35702  -1.34920  -1.34831  -1.34722  -1.34178
 Alpha  occ. eigenvalues --   -1.33935  -1.28796  -1.24553  -1.23915  -1.22284
 Alpha  occ. eigenvalues --   -1.20077  -1.14717  -1.14158  -1.00740  -0.98119
 Alpha  occ. eigenvalues --   -0.96077  -0.91576  -0.89538  -0.87163  -0.85828
 Alpha  occ. eigenvalues --   -0.84854  -0.83769  -0.81969  -0.81022  -0.80089
 Alpha  occ. eigenvalues --   -0.78609  -0.76813  -0.76079  -0.75550  -0.74503
 Alpha  occ. eigenvalues --   -0.74233  -0.73062  -0.72856  -0.72423  -0.71617
 Alpha  occ. eigenvalues --   -0.71192  -0.71115  -0.70643  -0.70363  -0.69897
 Alpha  occ. eigenvalues --   -0.69673  -0.69124  -0.68954  -0.68189  -0.67734
 Alpha  occ. eigenvalues --   -0.67000  -0.64269  -0.63567  -0.62703  -0.62391
 Alpha  occ. eigenvalues --   -0.62007  -0.61284  -0.60678  -0.60263  -0.59821
 Alpha  occ. eigenvalues --   -0.59480  -0.59202  -0.59174  -0.58814  -0.58622
 Alpha  occ. eigenvalues --   -0.58223  -0.58068  -0.57684  -0.57469  -0.57287
 Alpha  occ. eigenvalues --   -0.57258  -0.56774  -0.56707  -0.56479  -0.56165
 Alpha  occ. eigenvalues --   -0.55691  -0.55273  -0.55016  -0.54725  -0.54511
 Alpha  occ. eigenvalues --   -0.54367  -0.54223  -0.54003  -0.53756  -0.53626
 Alpha  occ. eigenvalues --   -0.53247  -0.52961  -0.52824  -0.52752  -0.52507
 Alpha  occ. eigenvalues --   -0.52198  -0.51907  -0.51589  -0.51050  -0.50933
 Alpha  occ. eigenvalues --   -0.50009  -0.48543  -0.48344  -0.46718  -0.45607
 Alpha  occ. eigenvalues --   -0.44919  -0.43606  -0.42771  -0.42309
 Alpha virt. eigenvalues --   -0.07526  -0.04980   0.00791   0.01451   0.03114
 Alpha virt. eigenvalues --    0.03667   0.05016   0.07385   0.07926   0.09579
 Alpha virt. eigenvalues --    0.10509   0.11686   0.12721   0.14061   0.14526

  Beta  occ. eigenvalues --  -24.88275 -24.87795 -24.86839 -24.86642 -24.86419
  Beta  occ. eigenvalues --  -24.86349 -24.86222 -24.86144 -24.86000 -24.85834
  Beta  occ. eigenvalues --  -24.85586 -24.85313 -24.85291 -24.85118 -24.85049
  Beta  occ. eigenvalues --  -24.84987 -24.84797 -24.84631 -19.37220 -19.34852
  Beta  occ. eigenvalues --  -19.30234 -19.29602 -14.61093 -14.60802 -14.58592
  Beta  occ. eigenvalues --  -10.62714 -10.61065 -10.59269 -10.58550 -10.57962
  Beta  occ. eigenvalues --  -10.56860 -10.53249 -10.52215 -10.52006 -10.51765
  Beta  occ. eigenvalues --  -10.51709 -10.40443 -10.37416  -1.46114  -1.45037
  Beta  occ. eigenvalues --   -1.44729  -1.43979  -1.43925  -1.41555  -1.38717
  Beta  occ. eigenvalues --   -1.38064  -1.36690  -1.36292  -1.35969  -1.35921
  Beta  occ. eigenvalues --   -1.35701  -1.34920  -1.34831  -1.34721  -1.34177
  Beta  occ. eigenvalues --   -1.33930  -1.28545  -1.24522  -1.23692  -1.22281
  Beta  occ. eigenvalues --   -1.19657  -1.14562  -1.13544  -0.99035  -0.98030
  Beta  occ. eigenvalues --   -0.95828  -0.91479  -0.89468  -0.86612  -0.85729
  Beta  occ. eigenvalues --   -0.84685  -0.83703  -0.81642  -0.80752  -0.80036
  Beta  occ. eigenvalues --   -0.78558  -0.76773  -0.76066  -0.75504  -0.74433
  Beta  occ. eigenvalues --   -0.74191  -0.73044  -0.72841  -0.72411  -0.71578
  Beta  occ. eigenvalues --   -0.71187  -0.71081  -0.70568  -0.70302  -0.69780
  Beta  occ. eigenvalues --   -0.69613  -0.69029  -0.68768  -0.67577  -0.67227
  Beta  occ. eigenvalues --   -0.66753  -0.63956  -0.63342  -0.62413  -0.62251
  Beta  occ. eigenvalues --   -0.61478  -0.61170  -0.60456  -0.60052  -0.59795
  Beta  occ. eigenvalues --   -0.59438  -0.59151  -0.59074  -0.58716  -0.58305
  Beta  occ. eigenvalues --   -0.58192  -0.58033  -0.57540  -0.57395  -0.57248
  Beta  occ. eigenvalues --   -0.57129  -0.56655  -0.56558  -0.56435  -0.56136
  Beta  occ. eigenvalues --   -0.55587  -0.55234  -0.54964  -0.54652  -0.54443
  Beta  occ. eigenvalues --   -0.54303  -0.54196  -0.53931  -0.53602  -0.53478
  Beta  occ. eigenvalues --   -0.53076  -0.52907  -0.52781  -0.52634  -0.52413
  Beta  occ. eigenvalues --   -0.52149  -0.51781  -0.51584  -0.51004  -0.50911
  Beta  occ. eigenvalues --   -0.49922  -0.48395  -0.48242  -0.46629  -0.45075
  Beta  occ. eigenvalues --   -0.43220  -0.43043  -0.42241
  Beta virt. eigenvalues --   -0.22013  -0.04729  -0.03622   0.00849   0.01742
  Beta virt. eigenvalues --    0.03281   0.04288   0.05283   0.07650   0.08115
  Beta virt. eigenvalues --    0.09685   0.10798   0.11787   0.12840   0.14148

 Mulliken charges and spin densities:
               1          2
     1  C   -0.186380   0.699242
     2  C    0.722392   0.004080
     3  N   -0.555950   0.226077
     4  C   -0.240480  -0.016496
     5  C    0.862488  -0.036265
     6  O   -0.439427   0.058197
     7  N   -0.637496   0.017130
     8  C    0.756287  -0.000667
     9  F   -0.258470   0.000585
    10  F   -0.240792   0.000172
    11  C    0.439058   0.000923
    12  F   -0.250584   0.000125
    13  O   -0.508933   0.000041
    14  C    1.000096   0.000063
    15  F   -0.243448   0.000002
    16  F   -0.242029   0.000003
    17  F   -0.236033   0.000015
    18  C    0.818942  -0.000076
    19  F   -0.249263   0.000017
    20  F   -0.256022   0.000139
    21  F   -0.230035   0.000001
    22  C    0.873499  -0.011615
    23  O   -0.451456   0.010757
    24  N   -0.662502   0.078993
    25  C    0.727655  -0.005647
    26  F   -0.221697   0.000171
    27  F   -0.254863   0.002235
    28  C    0.448929   0.002005
    29  F   -0.252803   0.000522
    30  O   -0.535517   0.002043
    31  C    1.006578   0.000592
    32  F   -0.235217   0.000011
    33  F   -0.239090   0.000086
    34  F   -0.231865   0.000237
    35  C    0.829628   0.000067
    36  F   -0.228796   0.000006
    37  F   -0.246478   0.000212
    38  F   -0.250116   0.000018
    39  H    0.236044  -0.028239
    40  H    0.233353  -0.029267
    41  H    0.227671   0.000395
    42  H    0.199147   0.010390
    43  H    0.203975   0.012720
 Sum of Mulliken charges =   1.00000   1.00000

 Dipole moment (field-independent basis, Debye):
    X=              8.1908    Y=            -11.8968    Z=              2.6759  Tot=             14.6895
 Quadrupole moment (field-independent basis, Debye-Ang):
   XX=           -182.1678   YY=           -164.5454   ZZ=           -194.0649
   XY=            -17.5850   XZ=              5.7351   YZ=             -7.7362

 Normal termination of Gaussian 09 at Sun Mar  3 17:38:45 2024.
