 Gaussian 09, Revision D.01,
 Gaussian 09:  ES64L-G09RevD.01 24-Apr-2013

 ----------------------------------------------------------------------
 #p CAM-B3LYP/6-31G(d,p) SCRF=(PCM,Solvent=Generic,Read) NoSymm out=wfn
 ----------------------------------------------------------------------

 -------------------
 Title A902432810_p1
 -------------------
 Symbolic Z-matrix:
 Charge =  1 Multiplicity = 2

                          Input orientation:
 ---------------------------------------------------------------------
 Center     Atomic      Atomic             Coordinates (Angstroms)
 Number     Number       Type             X           Y           Z
 ---------------------------------------------------------------------
      1          8           0        0.503648   -1.576795    1.073394
      2          6           0        0.234078   -0.403371    0.857872
      3          7           0        1.207462    0.557678    0.874858
      4          6           0        2.605350    0.177913    0.946014
      5          9           0        2.799483   -0.752792    1.913550
      6          9           0        3.267631    1.286820    1.413789
      7          6           0        3.318100   -0.234269   -0.366499
      8          9           0        2.985138    0.729290   -1.308187
      9          8           0        4.752953   -0.134099   -0.344155
     10          6           0        5.375851   -0.852219    0.690400
     11          9           0        6.694104   -0.916491    0.426426
     12          9           0        5.203849   -0.218827    1.859325
     13          9           0        4.893764   -2.097021    0.765772
     14          6           0        2.795897   -1.566875   -0.905650
     15          9           0        3.553779   -1.970704   -1.960929
     16          9           0        1.533629   -1.439931   -1.384334
     17          9           0        2.804315   -2.572041   -0.014802
     18          6           0        0.882217    1.826259    0.314005
     19          8           0       -0.261468    2.275409    0.997439
     20          6           0       -1.373128    1.412086    0.842929
     21          7           0       -1.019921    0.052861    0.506550
     22          6           0       -2.101538   -0.932356    0.498610
     23          9           0       -2.445203   -1.149664    1.803242
     24          9           0       -1.647471   -2.127652    0.031085
     25          6           0       -3.400273   -0.605603   -0.287966
     26          9           0       -4.269387   -1.650197   -0.113848
     27          8           0       -4.042712    0.534083    0.301493
     28          6           0       -5.152093    0.977220   -0.438948
     29          9           0       -4.706513    1.713429   -1.470864
     30          9           0       -5.896233   -0.044430   -0.882544
     31          9           0       -5.903947    1.762201    0.353077
     32          6           0       -3.002445   -0.509841   -1.767531
     33          9           0       -2.202721    0.562235   -1.989710
     34          9           0       -2.347446   -1.597513   -2.220654
     35          9           0       -4.083489   -0.353451   -2.567567
     36          1           0        0.692706    1.743239   -0.763107
     37          1           0        1.679961    2.554318    0.481873
     38          1           0       -1.931087    1.420136    1.784857
     39          1           0       -1.996838    1.832219    0.050735
 ---------------------------------------------------------------------

 SCF Done:  E(UCAM-B3LYP) =  -2628.03444409     A.U. after   36 cycles

 Alpha  occ. eigenvalues --  -24.88952 -24.88537 -24.88461 -24.87594 -24.87570
 Alpha  occ. eigenvalues --  -24.87451 -24.87289 -24.87275 -24.86948 -24.86786
 Alpha  occ. eigenvalues --  -24.86638 -24.86615 -24.86512 -24.86496 -24.86447
 Alpha  occ. eigenvalues --  -24.85726 -24.85424 -24.85411 -19.38491 -19.37923
 Alpha  occ. eigenvalues --  -19.37031 -19.36102 -14.63927 -14.57643 -10.63133
 Alpha  occ. eigenvalues --  -10.61990 -10.59860 -10.59584 -10.58719 -10.57562
 Alpha  occ. eigenvalues --  -10.54823 -10.54309 -10.52797 -10.47541 -10.45091
 Alpha  occ. eigenvalues --   -1.46873  -1.45966  -1.45814  -1.45005  -1.44816
 Alpha  occ. eigenvalues --   -1.43287  -1.39640  -1.39163  -1.37937  -1.37205
 Alpha  occ. eigenvalues --   -1.36866  -1.36801  -1.36557  -1.36123  -1.35987
 Alpha  occ. eigenvalues --   -1.35838  -1.35236  -1.35027  -1.32001  -1.27674
 Alpha  occ. eigenvalues --   -1.25250  -1.23409  -1.19091  -1.15830  -0.99361
 Alpha  occ. eigenvalues --   -0.97243  -0.94134  -0.91714  -0.87967  -0.87157
 Alpha  occ. eigenvalues --   -0.85490  -0.84869  -0.81868  -0.79668  -0.78183
 Alpha  occ. eigenvalues --   -0.77593  -0.77240  -0.76458  -0.75661  -0.75210
 Alpha  occ. eigenvalues --   -0.74113  -0.73782  -0.73513  -0.73245  -0.72627
 Alpha  occ. eigenvalues --   -0.72347  -0.72297  -0.71853  -0.71583  -0.71152
 Alpha  occ. eigenvalues --   -0.70305  -0.70204  -0.70111  -0.69078  -0.67536
 Alpha  occ. eigenvalues --   -0.65666  -0.65210  -0.64644  -0.63858  -0.61917
 Alpha  occ. eigenvalues --   -0.61775  -0.61060  -0.60765  -0.60670  -0.60375
 Alpha  occ. eigenvalues --   -0.60129  -0.60012  -0.59735  -0.59457  -0.59169
 Alpha  occ. eigenvalues --   -0.59111  -0.58974  -0.58519  -0.58392  -0.57851
 Alpha  occ. eigenvalues --   -0.57303  -0.56972  -0.56658  -0.56235  -0.56058
 Alpha  occ. eigenvalues --   -0.55960  -0.55845  -0.55576  -0.54902  -0.54685
 Alpha  occ. eigenvalues --   -0.54592  -0.54209  -0.54118  -0.53803  -0.53545
 Alpha  occ. eigenvalues --   -0.53373  -0.53291  -0.52866  -0.52574  -0.52144
 Alpha  occ. eigenvalues --   -0.51678  -0.51468  -0.51340  -0.50605  -0.49506
 Alpha  occ. eigenvalues --   -0.48610  -0.47589  -0.45909  -0.44895
 Alpha virt. eigenvalues --   -0.06378   0.00214   0.01984   0.02629   0.03001
 Alpha virt. eigenvalues --    0.05305   0.08048   0.09449   0.10123   0.11255
 Alpha virt. eigenvalues --    0.11732   0.12825   0.13005   0.13539   0.15098

  Beta  occ. eigenvalues --  -24.88943 -24.88486 -24.88456 -24.87580 -24.87559
  Beta  occ. eigenvalues --  -24.87450 -24.87288 -24.87270 -24.86948 -24.86784
  Beta  occ. eigenvalues --  -24.86638 -24.86601 -24.86512 -24.86495 -24.86447
  Beta  occ. eigenvalues --  -24.85726 -24.85424 -24.85411 -19.37916 -19.37231
  Beta  occ. eigenvalues --  -19.36688 -19.36104 -14.63174 -14.57642 -10.63133
  Beta  occ. eigenvalues --  -10.61990 -10.59861 -10.59616 -10.58720 -10.57563
  Beta  occ. eigenvalues --  -10.55040 -10.54297 -10.52801 -10.47524 -10.45079
  Beta  occ. eigenvalues --   -1.46865  -1.45960  -1.45807  -1.44993  -1.44739
  Beta  occ. eigenvalues --   -1.43270  -1.39625  -1.39159  -1.37870  -1.37186
  Beta  occ. eigenvalues --   -1.36850  -1.36799  -1.36554  -1.36099  -1.35977
  Beta  occ. eigenvalues --   -1.35836  -1.35236  -1.35015  -1.30615  -1.26370
  Beta  occ. eigenvalues --   -1.25230  -1.23412  -1.17432  -1.15404  -0.99255
  Beta  occ. eigenvalues --   -0.97189  -0.93716  -0.91526  -0.87554  -0.87084
  Beta  occ. eigenvalues --   -0.85426  -0.84846  -0.81780  -0.79594  -0.77950
  Beta  occ. eigenvalues --   -0.77320  -0.77131  -0.76423  -0.75557  -0.75000
  Beta  occ. eigenvalues --   -0.74047  -0.73676  -0.73314  -0.72766  -0.72527
  Beta  occ. eigenvalues --   -0.72287  -0.72220  -0.71768  -0.71055  -0.70889
  Beta  occ. eigenvalues --   -0.70209  -0.70086  -0.69527  -0.68882  -0.67510
  Beta  occ. eigenvalues --   -0.64768  -0.64151  -0.63738  -0.62793  -0.61800
  Beta  occ. eigenvalues --   -0.61389  -0.60796  -0.60581  -0.60533  -0.60259
  Beta  occ. eigenvalues --   -0.60078  -0.59674  -0.59639  -0.59408  -0.59093
  Beta  occ. eigenvalues --   -0.58972  -0.58796  -0.58466  -0.58287  -0.57568
  Beta  occ. eigenvalues --   -0.57201  -0.56917  -0.56427  -0.56195  -0.55938
  Beta  occ. eigenvalues --   -0.55920  -0.55778  -0.55451  -0.54875  -0.54601
  Beta  occ. eigenvalues --   -0.54540  -0.54139  -0.53945  -0.53673  -0.53363
  Beta  occ. eigenvalues --   -0.53271  -0.52847  -0.52745  -0.52559  -0.52063
  Beta  occ. eigenvalues --   -0.51463  -0.51330  -0.50495  -0.49149  -0.48169
  Beta  occ. eigenvalues --   -0.46960  -0.44756  -0.42471
  Beta virt. eigenvalues --   -0.28765  -0.05046   0.00277   0.02039   0.02717
  Beta virt. eigenvalues --    0.03260   0.05487   0.08212   0.09686   0.10269
  Beta virt. eigenvalues --    0.11631   0.11934   0.13099   0.13291   0.13743

 Mulliken charges and spin densities:
               1          2
     1  O   -0.308306   0.488217
     2  C    0.909941  -0.127138
     3  N   -0.553404   0.006463
     4  C    0.730661  -0.000641
     5  F   -0.237636   0.003680
     6  F   -0.265722   0.000645
     7  C    0.443679  -0.001469
     8  F   -0.274163   0.000156
     9  O   -0.490492  -0.000351
    10  C    0.986293   0.000019
    11  F   -0.233251   0.000006
    12  F   -0.235962   0.000047
    13  F   -0.233905   0.000028
    14  C    0.811027  -0.000994
    15  F   -0.244198   0.000136
    16  F   -0.250349   0.002955
    17  F   -0.224807   0.003047
    18  C    0.124792  -0.003870
    19  O   -0.421037   0.122431
    20  C    0.181831  -0.006827
    21  N   -0.511286   0.337464
    22  C    0.730244  -0.017713
    23  F   -0.234551   0.013983
    24  F   -0.230014   0.002717
    25  C    0.407075   0.004485
    26  F   -0.244869   0.001201
    27  O   -0.520877   0.001558
    28  C    1.011324   0.000093
    29  F   -0.241643   0.000042
    30  F   -0.230088   0.000118
    31  F   -0.228227   0.000110
    32  C    0.822624  -0.000205
    33  F   -0.245692   0.001164
    34  F   -0.225835   0.000096
    35  F   -0.239686   0.000088
    36  H    0.219334   0.029631
    37  H    0.235694   0.009410
    38  H    0.265523   0.056142
    39  H    0.245959   0.073075
 Sum of Mulliken charges =   1.00000   1.00000

 Dipole moment (field-independent basis, Debye):
    X=             -3.0408    Y=              4.4994    Z=              1.6257  Tot=              5.6687
 Quadrupole moment (field-independent basis, Debye-Ang):
   XX=           -157.7519   YY=           -173.9094   ZZ=           -178.4520
   XY=             -2.4842   XZ=             -0.2988   YZ=              1.4492

 Normal termination of Gaussian 09 at Sun Mar  3 18:01:22 2024.
