 Gaussian 09, Revision D.01,
 Gaussian 09:  ES64L-G09RevD.01 24-Apr-2013

 ----------------------------------------------------------------------
 #p CAM-B3LYP/6-31G(d,p) SCRF=(PCM,Solvent=Generic,Read) NoSymm out=wfn
 ----------------------------------------------------------------------

 ------------------
 Title A902432810_0
 ------------------
 Symbolic Z-matrix:
 Charge =  0 Multiplicity = 1

                          Input orientation:
 ---------------------------------------------------------------------
 Center     Atomic      Atomic             Coordinates (Angstroms)
 Number     Number       Type             X           Y           Z
 ---------------------------------------------------------------------
      1          8           0        0.893531   -1.727379   -0.478178
      2          6           0        0.379740   -0.614732   -0.488295
      3          7           0       -0.927976   -0.386059   -0.118717
      4          6           0       -1.737609   -1.576862    0.156343
      5          9           0       -1.049527   -2.283562    1.112482
      6          9           0       -1.739595   -2.361621   -0.952886
      7          6           0       -3.184133   -1.464972    0.721465
      8          9           0       -3.503854   -2.671998    1.295506
      9          8           0       -3.187825   -0.511209    1.792073
     10          6           0       -4.472947   -0.237415    2.283507
     11          9           0       -4.356222    0.355971    3.484635
     12          9           0       -5.074619    0.619421    1.439982
     13          9           0       -5.204471   -1.352756    2.411585
     14          6           0       -4.146571   -1.242463   -0.455095
     15          9           0       -3.929150   -0.057982   -1.070492
     16          9           0       -4.056992   -2.200070   -1.402284
     17          9           0       -5.439364   -1.232270   -0.053121
     18          6           0       -1.521912    0.869417   -0.456238
     19          8           0       -0.593385    1.891269   -0.167446
     20          6           0        0.519939    1.774362   -1.023340
     21          7           0        1.108125    0.482237   -0.856337
     22          6           0        2.482380    0.320922   -1.297140
     23          9           0        2.741772    1.395641   -2.121988
     24          9           0        2.598548   -0.744909   -2.129530
     25          6           0        3.595262    0.333659   -0.228157
     26          9           0        4.795055    0.377663   -0.893984
     27          8           0        3.467570    1.535791    0.557259
     28          6           0        4.713441    2.129981    0.813433
     29          9           0        5.599799    1.236119    1.275317
     30          9           0        5.176773    2.713740   -0.305537
     31          9           0        4.536697    3.083841    1.748539
     32          6           0        3.556910   -0.919575    0.636652
     33          9           0        3.611715   -2.058949   -0.080473
     34          9           0        2.464895   -0.952276    1.433392
     35          9           0        4.621043   -0.949773    1.481949
     36          1           0       -1.810257    0.882587   -1.513677
     37          1           0       -2.392194    1.071604    0.166059
     38          1           0        1.235485    2.551906   -0.739137
     39          1           0        0.229922    1.920700   -2.070441
 ---------------------------------------------------------------------

 SCF Done:  E(RCAM-B3LYP) =  -2628.35165153     A.U. after   13 cycles

 Alpha  occ. eigenvalues --  -24.85353 -24.84461 -24.84214 -24.84198 -24.84039
 Alpha  occ. eigenvalues --  -24.83670 -24.83481 -24.83439 -24.83271 -24.83195
 Alpha  occ. eigenvalues --  -24.82970 -24.82414 -24.82286 -24.82235 -24.81874
 Alpha  occ. eigenvalues --  -24.81842 -24.81623 -24.80270 -19.34064 -19.32821
 Alpha  occ. eigenvalues --  -19.27375 -19.20648 -14.48509 -14.48407 -10.60342
 Alpha  occ. eigenvalues --  -10.59434 -10.56497 -10.54297 -10.51876 -10.51767
 Alpha  occ. eigenvalues --  -10.49730 -10.48405 -10.43038 -10.37836 -10.37822
 Alpha  occ. eigenvalues --   -1.44091  -1.42949  -1.42849  -1.40712  -1.38385
 Alpha  occ. eigenvalues --   -1.37750  -1.35526  -1.35465  -1.34291  -1.34185
 Alpha  occ. eigenvalues --   -1.33981  -1.33356  -1.33069  -1.32673  -1.31836
 Alpha  occ. eigenvalues --   -1.31074  -1.30842  -1.30080  -1.21515  -1.20427
 Alpha  occ. eigenvalues --   -1.20137  -1.15324  -1.06576  -1.05456  -0.93730
 Alpha  occ. eigenvalues --   -0.92946  -0.85365  -0.84384  -0.82909  -0.81139
 Alpha  occ. eigenvalues --   -0.80058  -0.79474  -0.76981  -0.75115  -0.73907
 Alpha  occ. eigenvalues --   -0.72943  -0.72194  -0.71302  -0.70843  -0.70576
 Alpha  occ. eigenvalues --   -0.70468  -0.69866  -0.69379  -0.68945  -0.68411
 Alpha  occ. eigenvalues --   -0.67792  -0.67163  -0.66867  -0.66045  -0.65400
 Alpha  occ. eigenvalues --   -0.64971  -0.64447  -0.63118  -0.62517  -0.60698
 Alpha  occ. eigenvalues --   -0.60221  -0.59700  -0.58532  -0.58191  -0.57829
 Alpha  occ. eigenvalues --   -0.57090  -0.56865  -0.56626  -0.56407  -0.56139
 Alpha  occ. eigenvalues --   -0.55591  -0.55328  -0.54854  -0.54516  -0.54462
 Alpha  occ. eigenvalues --   -0.53750  -0.53618  -0.53303  -0.53183  -0.53058
 Alpha  occ. eigenvalues --   -0.52769  -0.52385  -0.52370  -0.52042  -0.51670
 Alpha  occ. eigenvalues --   -0.51399  -0.51063  -0.50923  -0.50868  -0.50571
 Alpha  occ. eigenvalues --   -0.50267  -0.50008  -0.49734  -0.49563  -0.49329
 Alpha  occ. eigenvalues --   -0.49011  -0.48771  -0.48571  -0.48380  -0.48283
 Alpha  occ. eigenvalues --   -0.47799  -0.46161  -0.45141  -0.43960  -0.42950
 Alpha  occ. eigenvalues --   -0.38799  -0.36316  -0.34959  -0.34815
 Alpha virt. eigenvalues --    0.04247   0.05323   0.07537   0.07776   0.09411
 Alpha virt. eigenvalues --    0.12763   0.13998   0.15177   0.15814   0.17079
 Alpha virt. eigenvalues --    0.17690   0.18114   0.19192   0.19365   0.20687

 Mulliken charges:
               1
     1  O   -0.522414
     2  C    0.858226
     3  N   -0.576866
     4  C    0.769657
     5  F   -0.275256
     6  F   -0.259716
     7  C    0.384139
     8  F   -0.265584
     9  O   -0.508568
    10  C    0.999966
    11  F   -0.234477
    12  F   -0.248898
    13  F   -0.237188
    14  C    0.805694
    15  F   -0.238765
    16  F   -0.233482
    17  F   -0.250354
    18  C    0.165758
    19  O   -0.486862
    20  C    0.192028
    21  N   -0.603522
    22  C    0.733096
    23  F   -0.286644
    24  F   -0.242004
    25  C    0.423551
    26  F   -0.275031
    27  O   -0.534890
    28  C    1.006378
    29  F   -0.243004
    30  F   -0.247719
    31  F   -0.243691
    32  C    0.827448
    33  F   -0.234618
    34  F   -0.238888
    35  F   -0.256997
    36  H    0.134229
    37  H    0.146924
    38  H    0.159921
    39  H    0.138426
 Sum of Mulliken charges =   0.00000

 Dipole moment (field-independent basis, Debye):
    X=             -2.8852    Y=              3.6925    Z=             -1.3882  Tot=              4.8873
 Quadrupole moment (field-independent basis, Debye-Ang):
   XX=           -183.2002   YY=           -191.1479   ZZ=           -183.1482
   XY=              2.3076   XZ=              0.6520   YZ=             -3.7499

 Normal termination of Gaussian 09 at Tue Mar  5 18:17:18 2024.
