 Gaussian 09, Revision D.01,
 Gaussian 09:  ES64L-G09RevD.01 24-Apr-2013

 ----------------------------------------------------------------------
 #p CAM-B3LYP/6-31G(d,p) opt SCRF=(PCM,Solvent=Generic,Read) NoSymm out
 =wfn
 ----------------------------------------------------------------------

 ---------------------
 Title AEPYridine0_neu
 ---------------------
 Symbolic Z-matrix:
 Charge =  0 Multiplicity = 1

 SCF Done:  E(RCAM-B3LYP) =  -1985.73942407     A.U. after   13 cycles
 SCF Done:  E(RCAM-B3LYP) =  -1985.75984849     A.U. after   12 cycles
 SCF Done:  E(RCAM-B3LYP) =  -1985.76603578     A.U. after   12 cycles
 SCF Done:  E(RCAM-B3LYP) =  -1985.76619878     A.U. after   13 cycles
 SCF Done:  E(RCAM-B3LYP) =  -1985.76913309     A.U. after   12 cycles
 SCF Done:  E(RCAM-B3LYP) =  -1985.77105771     A.U. after   12 cycles
 SCF Done:  E(RCAM-B3LYP) =  -1985.77315714     A.U. after   12 cycles
 SCF Done:  E(RCAM-B3LYP) =  -1985.77376638     A.U. after   11 cycles
 SCF Done:  E(RCAM-B3LYP) =  -1985.77298642     A.U. after   12 cycles
 SCF Done:  E(RCAM-B3LYP) =  -1985.77397730     A.U. after    9 cycles
 SCF Done:  E(RCAM-B3LYP) =  -1985.77406697     A.U. after    9 cycles
 SCF Done:  E(RCAM-B3LYP) =  -1985.77406848     A.U. after    9 cycles
 SCF Done:  E(RCAM-B3LYP) =  -1985.77407308     A.U. after    9 cycles
 SCF Done:  E(RCAM-B3LYP) =  -1985.77407480     A.U. after    9 cycles
 SCF Done:  E(RCAM-B3LYP) =  -1985.77407542     A.U. after    8 cycles
 SCF Done:  E(RCAM-B3LYP) =  -1985.77407563     A.U. after    8 cycles
 SCF Done:  E(RCAM-B3LYP) =  -1985.77407569     A.U. after    7 cycles
 SCF Done:  E(RCAM-B3LYP) =  -1985.77407572     A.U. after    7 cycles
 SCF Done:  E(RCAM-B3LYP) =  -1985.77407573     A.U. after    6 cycles
 SCF Done:  E(RCAM-B3LYP) =  -1985.77407574     A.U. after    6 cycles
 Optimization completed.
    -- Stationary point found.

                          Input orientation:
 ---------------------------------------------------------------------
 Center     Atomic      Atomic             Coordinates (Angstroms)
 Number     Number       Type             X           Y           Z
 ---------------------------------------------------------------------
      1          9           0       -2.553145    3.336113    1.897408
      2          6           0       -2.983059    2.524687    0.929463
      3          9           0       -3.256574    3.268172   -0.143757
      4          6           0       -4.218605    1.707466    1.378613
      5          9           0       -4.265750    1.674231    2.718913
      6          9           0       -5.342392    2.264611    0.915709
      7          6           0       -3.928992    0.263513    0.872166
      8          9           0       -4.403514   -0.645837    1.756796
      9          6           0       -4.597270   -0.003889   -0.493081
     10          9           0       -5.933287    0.136616   -0.308758
     11          6           0       -4.424898   -1.391599   -1.148143
     12          8           0       -4.897742   -2.345015   -0.355249
     13          8           0       -3.993173   -1.535388   -2.256168
     14          9           0       -4.171026    0.939246   -1.354705
     15          6           0       -2.370870    0.304926    0.930832
     16          9           0       -2.038857    0.036283    2.223462
     17          6           0       -1.549553   -0.646277    0.053226
     18          9           0       -1.689068   -0.253101   -1.239194
     19          6           0       -0.053305   -0.701883    0.437841
     20          7           0        0.696994    0.230884   -0.172120
     21          6           0        2.128287    0.315149    0.069583
     22          6           0        2.929083   -0.698163   -0.759744
     23          6           0        4.405293   -0.602660   -0.478184
     24          6           0        4.978948   -1.314490    0.576309
     25          7           0        6.267027   -1.256970    0.909888
     26          6           0        7.054572   -0.464128    0.182184
     27          6           0        6.595636    0.288790   -0.891198
     28          6           0        5.249912    0.216651   -1.222436
     29          8           0        0.337834   -1.527614    1.237744
     30          9           0       -2.079086   -1.880558    0.188645
     31          8           0       -2.001749    1.605699    0.602837
     32          1           0       -4.805084   -3.194034   -0.819260
     33          1           0        0.272802    0.808127   -0.882479
     34          1           0        2.448670    1.335233   -0.152916
     35          1           0        2.296953    0.135095    1.133450
     36          1           0        2.563255   -1.699947   -0.518184
     37          1           0        2.736201   -0.526358   -1.823342
     38          1           0        4.355513   -1.972916    1.179626
     39          1           0        8.102986   -0.431638    0.468796
     40          1           0        7.279889    0.913481   -1.454412
     41          1           0        4.857142    0.787491   -2.059517
 ---------------------------------------------------------------------

 Alpha  occ. eigenvalues --  -24.82867 -24.82783 -24.82681 -24.82655 -24.82613
 Alpha  occ. eigenvalues --  -24.82613 -24.82577 -24.81891 -24.81805 -24.81726
 Alpha  occ. eigenvalues --  -19.32050 -19.30321 -19.25025 -19.21834 -14.46120
 Alpha  occ. eigenvalues --  -14.40508 -10.52299 -10.48202 -10.48166 -10.47299
 Alpha  occ. eigenvalues --  -10.46708 -10.43635 -10.42270 -10.39656 -10.31321
 Alpha  occ. eigenvalues --  -10.29641 -10.29594 -10.28331 -10.28109 -10.27539
 Alpha  occ. eigenvalues --  -10.27356  -1.40833  -1.38636  -1.38389  -1.37765
 Alpha  occ. eigenvalues --   -1.35498  -1.33507  -1.33051  -1.32154  -1.31914
 Alpha  occ. eigenvalues --   -1.31493  -1.22721  -1.22255  -1.14955  -1.13747
 Alpha  occ. eigenvalues --   -1.03589  -1.02779  -0.94642  -0.91541  -0.90647
 Alpha  occ. eigenvalues --   -0.86980  -0.86193  -0.83876  -0.81431  -0.78068
 Alpha  occ. eigenvalues --   -0.76657  -0.74613  -0.73551  -0.71314  -0.70945
 Alpha  occ. eigenvalues --   -0.70591  -0.69743  -0.68544  -0.68287  -0.67802
 Alpha  occ. eigenvalues --   -0.67572  -0.66567  -0.66206  -0.65813  -0.64872
 Alpha  occ. eigenvalues --   -0.64059  -0.63460  -0.62721  -0.59660  -0.58300
 Alpha  occ. eigenvalues --   -0.57687  -0.57240  -0.56662  -0.56399  -0.55824
 Alpha  occ. eigenvalues --   -0.55585  -0.55258  -0.54932  -0.54766  -0.53735
 Alpha  occ. eigenvalues --   -0.53184  -0.53113  -0.52884  -0.52511  -0.52129
 Alpha  occ. eigenvalues --   -0.51976  -0.51533  -0.51265  -0.50921  -0.50799
 Alpha  occ. eigenvalues --   -0.50201  -0.49984  -0.49848  -0.49723  -0.49260
 Alpha  occ. eigenvalues --   -0.48112  -0.47647  -0.47434  -0.46908  -0.45947
 Alpha  occ. eigenvalues --   -0.45310  -0.44858  -0.43723  -0.43288  -0.41850
 Alpha  occ. eigenvalues --   -0.41714  -0.41436  -0.37510  -0.35054  -0.34692
 Alpha  occ. eigenvalues --   -0.33901  -0.31858  -0.31080
 Alpha virt. eigenvalues --    0.01847   0.02239   0.02884   0.03766   0.06292
 Alpha virt. eigenvalues --    0.10294   0.11456   0.12561   0.13386   0.14428
 Alpha virt. eigenvalues --    0.14946   0.15917   0.16875   0.18240   0.19081

 Mulliken charges:
               1
     1  F   -0.243415
     2  C    0.778832
     3  F   -0.241984
     4  C    0.493544
     5  F   -0.260105
     6  F   -0.251469
     7  C    0.187664
     8  F   -0.281482
     9  C    0.590382
    10  F   -0.273525
    11  C    0.537653
    12  O   -0.466822
    13  O   -0.436348
    14  F   -0.265430
    15  C    0.498052
    16  F   -0.274045
    17  C    0.532713
    18  F   -0.276199
    19  C    0.545730
    20  N   -0.528237
    21  C   -0.049078
    22  C   -0.246210
    23  C    0.081279
    24  C    0.053559
    25  N   -0.436827
    26  C    0.081142
    27  C   -0.104916
    28  C   -0.092590
    29  O   -0.500710
    30  F   -0.271897
    31  O   -0.499620
    32  H    0.357550
    33  H    0.294897
    34  H    0.126639
    35  H    0.151848
    36  H    0.138224
    37  H    0.112873
    38  H    0.114411
    39  H    0.110030
    40  H    0.107973
    41  H    0.105914
 Sum of Mulliken charges =   0.00000

 Dipole moment (field-independent basis, Debye):
    X=              0.5410    Y=              1.6275    Z=             -3.6854  Tot=              4.0649
 Quadrupole moment (field-independent basis, Debye-Ang):
   XX=           -169.1413   YY=           -164.8158   ZZ=           -177.8686
   XY=             22.3834   XZ=            -12.6578   YZ=              3.5049

 Normal termination of Gaussian 09 at Tue Feb  4 06:12:46 2025.
