 Gaussian 09, Revision D.01,
 Gaussian 09:  ES64L-G09RevD.01 24-Apr-2013

 ----------------------------------------------------------------------
 #p CAM-B3LYP/6-31G(d,p) opt SCRF=(PCM,Solvent=Generic,Read) NoSymm out
 =wfn
 ----------------------------------------------------------------------

 ---------------------
 Title AEPYridine1_neu
 ---------------------
 Symbolic Z-matrix:
 Charge =  0 Multiplicity = 1

 SCF Done:  E(RCAM-B3LYP) =  -1985.73657537     A.U. after   13 cycles
 SCF Done:  E(RCAM-B3LYP) =  -1985.75424097     A.U. after   14 cycles
 SCF Done:  E(RCAM-B3LYP) =  -1985.76412599     A.U. after   12 cycles
 SCF Done:  E(RCAM-B3LYP) =  -1985.76746658     A.U. after   12 cycles
 SCF Done:  E(RCAM-B3LYP) =  -1985.76737735     A.U. after   14 cycles
 SCF Done:  E(RCAM-B3LYP) =  -1985.76849410     A.U. after   10 cycles
 SCF Done:  E(RCAM-B3LYP) =  -1985.76962803     A.U. after   12 cycles
 SCF Done:  E(RCAM-B3LYP) =  -1985.76676880     A.U. after   15 cycles
 SCF Done:  E(RCAM-B3LYP) =  -1985.77041117     A.U. after   12 cycles
 SCF Done:  E(RCAM-B3LYP) =  -1985.77161924     A.U. after   12 cycles
 SCF Done:  E(RCAM-B3LYP) =  -1985.77481165     A.U. after    9 cycles
 SCF Done:  E(RCAM-B3LYP) =  -1985.77481469     A.U. after    9 cycles
 SCF Done:  E(RCAM-B3LYP) =  -1985.77481634     A.U. after    9 cycles
 SCF Done:  E(RCAM-B3LYP) =  -1985.77481731     A.U. after    9 cycles
 SCF Done:  E(RCAM-B3LYP) =  -1985.77481813     A.U. after    9 cycles
 SCF Done:  E(RCAM-B3LYP) =  -1985.77481862     A.U. after    9 cycles
 SCF Done:  E(RCAM-B3LYP) =  -1985.77481892     A.U. after    8 cycles
 SCF Done:  E(RCAM-B3LYP) =  -1985.77481910     A.U. after    8 cycles
 SCF Done:  E(RCAM-B3LYP) =  -1985.77481917     A.U. after    7 cycles
 SCF Done:  E(RCAM-B3LYP) =  -1985.77481918     A.U. after    6 cycles
 Optimization completed.
    -- Stationary point found.

                          Input orientation:
 ---------------------------------------------------------------------
 Center     Atomic      Atomic             Coordinates (Angstroms)
 Number     Number       Type             X           Y           Z
 ---------------------------------------------------------------------
      1          9           0       -2.233151   -3.356997    0.864239
      2          6           0       -2.870775   -2.567638   -0.001445
      3          9           0       -3.397026   -3.338430   -0.960760
      4          6           0       -3.968077   -1.725622    0.678636
      5          9           0       -3.609124   -1.489371    1.953139
      6          9           0       -5.152580   -2.339099    0.656574
      7          6           0       -3.960790   -0.433980   -0.161446
      8          9           0       -4.708928   -0.722748   -1.269573
      9          6           0       -4.633005    0.762064    0.527872
     10          9           0       -3.974874    1.093414    1.656745
     11          6           0       -4.775604    2.005641   -0.365486
     12          8           0       -5.384701    2.971458    0.312295
     13          8           0       -4.392084    2.065568   -1.500199
     14          9           0       -5.875908    0.348763    0.877331
     15          6           0       -2.475693   -0.355882   -0.644060
     16          9           0       -2.444170    0.010671   -1.935611
     17          6           0       -1.500611    0.548334    0.130312
     18          9           0       -1.493429    0.125094    1.425707
     19          6           0       -0.069515    0.522489   -0.452423
     20          7           0        0.762482   -0.333748    0.163033
     21          6           0        2.140675   -0.481545   -0.274493
     22          6           0        3.059563    0.617197    0.277163
     23          6           0        4.477313    0.443479   -0.199172
     24          6           0        4.906830    1.021363   -1.394550
     25          7           0        6.132090    0.884253   -1.898678
     26          6           0        7.000279    0.143791   -1.208786
     27          6           0        6.686046   -0.477452   -0.006595
     28          6           0        5.404092   -0.323723    0.501863
     29          8           0        0.208231    1.234818   -1.396964
     30          9           0       -1.952304    1.817231    0.093382
     31          8           0       -1.972841   -1.668416   -0.530451
     32          1           0       -5.464372    3.744480   -0.271561
     33          1           0        0.432517   -0.833881    0.973820
     34          1           0        2.489653   -1.468046    0.038295
     35          1           0        2.149893   -0.453084   -1.366385
     36          1           0        2.667680    1.584324   -0.049219
     37          1           0        3.024268    0.600890    1.371063
     38          1           0        4.216068    1.634695   -1.971398
     39          1           0        7.995521    0.044732   -1.635535
     40          1           0        7.431763   -1.064348    0.517942
     41          1           0        5.124599   -0.790738    1.442463
 ---------------------------------------------------------------------

 Alpha  occ. eigenvalues --  -24.82984 -24.82747 -24.82730 -24.82527 -24.82410
 Alpha  occ. eigenvalues --  -24.82193 -24.82104 -24.82099 -24.81731 -24.81415
 Alpha  occ. eigenvalues --  -19.31411 -19.30446 -19.25150 -19.21482 -14.45846
 Alpha  occ. eigenvalues --  -14.40437 -10.52055 -10.48120 -10.48054 -10.46864
 Alpha  occ. eigenvalues --  -10.46576 -10.43707 -10.42031 -10.39314 -10.31161
 Alpha  occ. eigenvalues --  -10.29580 -10.29512 -10.28268 -10.28026 -10.27405
 Alpha  occ. eigenvalues --  -10.27300  -1.40642  -1.38630  -1.38020  -1.37602
 Alpha  occ. eigenvalues --   -1.35460  -1.33561  -1.32717  -1.31872  -1.31667
 Alpha  occ. eigenvalues --   -1.31516  -1.22792  -1.21520  -1.14626  -1.13919
 Alpha  occ. eigenvalues --   -1.03295  -1.02698  -0.94467  -0.91145  -0.90218
 Alpha  occ. eigenvalues --   -0.86970  -0.86462  -0.83747  -0.81353  -0.78548
 Alpha  occ. eigenvalues --   -0.76625  -0.74642  -0.73033  -0.70873  -0.70698
 Alpha  occ. eigenvalues --   -0.70347  -0.68819  -0.68623  -0.68355  -0.67898
 Alpha  occ. eigenvalues --   -0.67342  -0.67117  -0.66193  -0.65679  -0.65050
 Alpha  occ. eigenvalues --   -0.63396  -0.63052  -0.62180  -0.59584  -0.58455
 Alpha  occ. eigenvalues --   -0.57214  -0.57028  -0.56651  -0.56167  -0.55823
 Alpha  occ. eigenvalues --   -0.55245  -0.55061  -0.54538  -0.54159  -0.54034
 Alpha  occ. eigenvalues --   -0.53580  -0.53071  -0.52752  -0.52630  -0.52097
 Alpha  occ. eigenvalues --   -0.51780  -0.51531  -0.51195  -0.50859  -0.50486
 Alpha  occ. eigenvalues --   -0.50123  -0.49942  -0.49816  -0.49191  -0.48693
 Alpha  occ. eigenvalues --   -0.48312  -0.47551  -0.47284  -0.46832  -0.46268
 Alpha  occ. eigenvalues --   -0.45126  -0.44650  -0.43134  -0.42719  -0.41978
 Alpha  occ. eigenvalues --   -0.41739  -0.41463  -0.37464  -0.34833  -0.34360
 Alpha  occ. eigenvalues --   -0.33731  -0.31783  -0.30996
 Alpha virt. eigenvalues --    0.01496   0.02314   0.03061   0.03800   0.06549
 Alpha virt. eigenvalues --    0.10369   0.11985   0.12653   0.13035   0.14596
 Alpha virt. eigenvalues --    0.15206   0.16789   0.17721   0.18509   0.19057

 Mulliken charges:
               1
     1  F   -0.247317
     2  C    0.756068
     3  F   -0.243114
     4  C    0.518753
     5  F   -0.258860
     6  F   -0.249505
     7  C    0.155402
     8  F   -0.294241
     9  C    0.562072
    10  F   -0.261074
    11  C    0.568909
    12  O   -0.473365
    13  O   -0.429934
    14  F   -0.271995
    15  C    0.527686
    16  F   -0.249359
    17  C    0.557413
    18  F   -0.290290
    19  C    0.539182
    20  N   -0.526855
    21  C   -0.047578
    22  C   -0.245892
    23  C    0.081209
    24  C    0.053147
    25  N   -0.436835
    26  C    0.081141
    27  C   -0.104991
    28  C   -0.092113
    29  O   -0.506133
    30  F   -0.270386
    31  O   -0.514886
    32  H    0.358062
    33  H    0.291981
    34  H    0.124889
    35  H    0.151497
    36  H    0.138387
    37  H    0.111833
    38  H    0.114771
    39  H    0.109691
    40  H    0.107527
    41  H    0.105103
 Sum of Mulliken charges =   0.00000

 Dipole moment (field-independent basis, Debye):
    X=              0.4518    Y=             -0.8529    Z=              4.7995  Tot=              4.8956
 Quadrupole moment (field-independent basis, Debye-Ang):
   XX=           -161.3251   YY=           -160.9323   ZZ=           -180.3689
   XY=            -24.4509   XZ=             13.5318   YZ=              1.9077

 Normal termination of Gaussian 09 at Wed Feb  5 04:37:00 2025.
