 Gaussian 09, Revision D.01,
 Gaussian 09:  ES64L-G09RevD.01 24-Apr-2013

 ----------------------------------------------------------------------
 #p CAM-B3LYP/6-31G(d,p) SCRF=(PCM,Solvent=Generic,Read) NoSymm out=wfn
 ----------------------------------------------------------------------

 -------------------
 Title A1445123341_0
 -------------------
 Symbolic Z-matrix:
 Charge =  0 Multiplicity = 1

                          Input orientation:
 ---------------------------------------------------------------------
 Center     Atomic      Atomic             Coordinates (Angstroms)
 Number     Number       Type             X           Y           Z
 ---------------------------------------------------------------------
      1          6           0       -4.271584    2.244921   -1.565743
      2          6           0       -3.999408    0.778921   -1.268894
      3          6           0       -2.704591    0.599167   -0.478117
      4          6           0       -2.434505   -0.879661   -0.182206
      5          7           0       -1.192998   -1.064397    0.569912
      6          6           0       -1.245964   -0.956982    1.944878
      7          8           0       -2.298952   -0.735810    2.544894
      8          7           0       -0.039180   -1.064080    2.602148
      9          6           0       -0.031359   -0.871385    4.042564
     10          6           0        1.171623   -1.120746    1.946647
     11          8           0        2.229691   -0.906490    2.536646
     12          7           0        1.124455   -1.388811    0.603315
     13          6           0        2.391867   -1.458478   -0.107746
     14          9           0        3.255227   -2.224832    0.620933
     15          9           0        2.216586   -2.190304   -1.247384
     16          6           0        3.044011   -0.092676   -0.451846
     17          9           0        3.403306    0.540827    0.702997
     18          8           0        2.076022    0.767163   -1.063915
     19          6           0        2.634949    1.924210   -1.625178
     20          9           0        1.644743    2.806421   -1.855912
     21          9           0        3.219302    1.615971   -2.793665
     22          9           0        3.526193    2.484694   -0.793544
     23          6           0        4.298621   -0.437434   -1.266932
     24          9           0        5.051991    0.663860   -1.506961
     25          9           0        3.989567   -0.962371   -2.473925
     26          9           0        5.110586   -1.316318   -0.640153
     27          6           0       -0.010801   -1.168878   -0.135333
     28          8           0        0.016733   -1.034234   -1.359001
     29          1           0       -5.202192    2.350567   -2.132047
     30          1           0       -3.461676    2.682091   -2.158439
     31          1           0       -4.369890    2.820942   -0.640067
     32          1           0       -3.938580    0.226122   -2.213546
     33          1           0       -4.841809    0.364068   -0.703297
     34          1           0       -2.765321    1.160910    0.462092
     35          1           0       -1.865690    1.024988   -1.042220
     36          1           0       -3.268787   -1.303855    0.389184
     37          1           0       -2.373056   -1.442847   -1.121185
     38          1           0       -0.936724   -1.286569    4.495467
     39          1           0        0.007220    0.203457    4.246560
     40          1           0        0.840375   -1.352143    4.496533
 ---------------------------------------------------------------------

 SCF Done:  E(RCAM-B3LYP) =  -1827.69110901     A.U. after   13 cycles

 Alpha  occ. eigenvalues --  -24.83572 -24.83467 -24.83348 -24.83210 -24.82849
 Alpha  occ. eigenvalues --  -24.82584 -24.82493 -24.82440 -24.82437 -19.32869
 Alpha  occ. eigenvalues --  -19.23013 -19.22811 -19.22488 -14.51854 -14.49504
 Alpha  occ. eigenvalues --  -14.49218 -10.59498 -10.55214 -10.52849 -10.48730
 Alpha  occ. eigenvalues --  -10.44772 -10.44693 -10.43656 -10.30796 -10.30681
 Alpha  occ. eigenvalues --  -10.25891 -10.25498 -10.24464  -1.43156  -1.41585
 Alpha  occ. eigenvalues --   -1.38619  -1.35375  -1.33471  -1.33219  -1.32578
 Alpha  occ. eigenvalues --   -1.31986  -1.31156  -1.21520  -1.20401  -1.16403
 Alpha  occ. eigenvalues --   -1.16141  -1.08461  -1.06191  -1.04696  -0.93215
 Alpha  occ. eigenvalues --   -0.88933  -0.85161  -0.82834  -0.82617  -0.81666
 Alpha  occ. eigenvalues --   -0.77743  -0.77006  -0.75049  -0.73297  -0.72641
 Alpha  occ. eigenvalues --   -0.72047  -0.71269  -0.70327  -0.69509  -0.68372
 Alpha  occ. eigenvalues --   -0.67302  -0.66654  -0.66225  -0.66156  -0.64208
 Alpha  occ. eigenvalues --   -0.61215  -0.59728  -0.58973  -0.57456  -0.57000
 Alpha  occ. eigenvalues --   -0.56060  -0.55842  -0.55479  -0.55289  -0.55015
 Alpha  occ. eigenvalues --   -0.54841  -0.54650  -0.54565  -0.53771  -0.53240
 Alpha  occ. eigenvalues --   -0.53008  -0.52870  -0.52279  -0.52047  -0.51798
 Alpha  occ. eigenvalues --   -0.51351  -0.50474  -0.50257  -0.49751  -0.49594
 Alpha  occ. eigenvalues --   -0.48906  -0.48737  -0.48616  -0.48163  -0.47552
 Alpha  occ. eigenvalues --   -0.47229  -0.45570  -0.45386  -0.44363  -0.42185
 Alpha  occ. eigenvalues --   -0.41506  -0.40305  -0.39454  -0.38898  -0.38411
 Alpha  occ. eigenvalues --   -0.37388  -0.35734  -0.34859  -0.34528
 Alpha virt. eigenvalues --    0.01912   0.02681   0.06059   0.09427   0.12174
 Alpha virt. eigenvalues --    0.14286   0.14455   0.15841   0.16777   0.17546
 Alpha virt. eigenvalues --    0.17841   0.17988   0.18964   0.19320   0.20319

 Mulliken charges:
               1
     1  C   -0.322775
     2  C   -0.183949
     3  C   -0.180100
     4  C   -0.057030
     5  N   -0.575324
     6  C    0.818360
     7  O   -0.525696
     8  N   -0.562929
     9  C   -0.181201
    10  C    0.812146
    11  O   -0.505966
    12  N   -0.633504
    13  C    0.761024
    14  F   -0.260427
    15  F   -0.257090
    16  C    0.437149
    17  F   -0.255536
    18  O   -0.505741
    19  C    0.995487
    20  F   -0.240489
    21  F   -0.243598
    22  F   -0.243378
    23  C    0.811794
    24  F   -0.260798
    25  F   -0.246524
    26  F   -0.244346
    27  C    0.836162
    28  O   -0.512583
    29  H    0.105272
    30  H    0.108389
    31  H    0.107614
    32  H    0.104404
    33  H    0.103600
    34  H    0.112547
    35  H    0.115117
    36  H    0.147313
    37  H    0.146096
    38  H    0.161642
    39  H    0.154675
    40  H    0.160192
 Sum of Mulliken charges =   0.00000

 Dipole moment (field-independent basis, Debye):
    X=             -2.6196    Y=             -0.1122    Z=              1.2829  Tot=              2.9190
 Quadrupole moment (field-independent basis, Debye-Ang):
   XX=           -163.9345   YY=           -151.4121   ZZ=           -154.5454
   XY=              2.8194   XZ=              2.7737   YZ=             -3.3946

 Normal termination of Gaussian 09 at Sun Mar  3 17:38:49 2024.
