 Gaussian 09, Revision D.01,
 Gaussian 09:  ES64L-G09RevD.01 24-Apr-2013

 ----------------------------------------------------------------------
 #p CAM-B3LYP/6-31G(d,p) SCRF=(PCM,Solvent=Generic,Read) NoSymm out=wfn
 ----------------------------------------------------------------------

 --------------------
 Title A1445123341_p1
 --------------------
 Symbolic Z-matrix:
 Charge =  1 Multiplicity = 2

                          Input orientation:
 ---------------------------------------------------------------------
 Center     Atomic      Atomic             Coordinates (Angstroms)
 Number     Number       Type             X           Y           Z
 ---------------------------------------------------------------------
      1          6           0       -4.271584    2.244921   -1.565743
      2          6           0       -3.999408    0.778921   -1.268894
      3          6           0       -2.704591    0.599167   -0.478117
      4          6           0       -2.434505   -0.879661   -0.182206
      5          7           0       -1.192998   -1.064397    0.569912
      6          6           0       -1.245964   -0.956982    1.944878
      7          8           0       -2.298952   -0.735810    2.544894
      8          7           0       -0.039180   -1.064080    2.602148
      9          6           0       -0.031359   -0.871385    4.042564
     10          6           0        1.171623   -1.120746    1.946647
     11          8           0        2.229691   -0.906490    2.536646
     12          7           0        1.124455   -1.388811    0.603315
     13          6           0        2.391867   -1.458478   -0.107746
     14          9           0        3.255227   -2.224832    0.620933
     15          9           0        2.216586   -2.190304   -1.247384
     16          6           0        3.044011   -0.092676   -0.451846
     17          9           0        3.403306    0.540827    0.702997
     18          8           0        2.076022    0.767163   -1.063915
     19          6           0        2.634949    1.924210   -1.625178
     20          9           0        1.644743    2.806421   -1.855912
     21          9           0        3.219302    1.615971   -2.793665
     22          9           0        3.526193    2.484694   -0.793544
     23          6           0        4.298621   -0.437434   -1.266932
     24          9           0        5.051991    0.663860   -1.506961
     25          9           0        3.989567   -0.962371   -2.473925
     26          9           0        5.110586   -1.316318   -0.640153
     27          6           0       -0.010801   -1.168878   -0.135333
     28          8           0        0.016733   -1.034234   -1.359001
     29          1           0       -5.202192    2.350567   -2.132047
     30          1           0       -3.461676    2.682091   -2.158439
     31          1           0       -4.369890    2.820942   -0.640067
     32          1           0       -3.938580    0.226122   -2.213546
     33          1           0       -4.841809    0.364068   -0.703297
     34          1           0       -2.765321    1.160910    0.462092
     35          1           0       -1.865690    1.024988   -1.042220
     36          1           0       -3.268787   -1.303855    0.389184
     37          1           0       -2.373056   -1.442847   -1.121185
     38          1           0       -0.936724   -1.286569    4.495467
     39          1           0        0.007220    0.203457    4.246560
     40          1           0        0.840375   -1.352143    4.496533
 ---------------------------------------------------------------------

 SCF Done:  E(UCAM-B3LYP) =  -1827.37727353     A.U. after   34 cycles

 Alpha  occ. eigenvalues --  -24.86689 -24.86328 -24.85803 -24.85772 -24.85582
 Alpha  occ. eigenvalues --  -24.85537 -24.85383 -24.85085 -24.84700 -19.36062
 Alpha  occ. eigenvalues --  -19.35179 -19.31422 -19.29624 -14.65808 -14.58663
 Alpha  occ. eigenvalues --  -14.57752 -10.61992 -10.57645 -10.57290 -10.54244
 Alpha  occ. eigenvalues --  -10.52260 -10.52053 -10.51077 -10.40057 -10.35446
 Alpha  occ. eigenvalues --  -10.33699 -10.30339 -10.28021  -1.45464  -1.43967
 Alpha  occ. eigenvalues --   -1.42464  -1.38419  -1.35689  -1.35644  -1.35393
 Alpha  occ. eigenvalues --   -1.34386  -1.34121  -1.31166  -1.25850  -1.24090
 Alpha  occ. eigenvalues --   -1.23505  -1.18263  -1.15025  -1.13134  -0.97444
 Alpha  occ. eigenvalues --   -0.96212  -0.90790  -0.90640  -0.89251  -0.84866
 Alpha  occ. eigenvalues --   -0.84112  -0.83025  -0.80809  -0.79535  -0.78410
 Alpha  occ. eigenvalues --   -0.75782  -0.75111  -0.73138  -0.72839  -0.72300
 Alpha  occ. eigenvalues --   -0.71098  -0.70810  -0.69846  -0.69579  -0.68686
 Alpha  occ. eigenvalues --   -0.67896  -0.66947  -0.64135  -0.63029  -0.62851
 Alpha  occ. eigenvalues --   -0.62379  -0.61891  -0.61449  -0.59725  -0.59514
 Alpha  occ. eigenvalues --   -0.59352  -0.59287  -0.58678  -0.58363  -0.57918
 Alpha  occ. eigenvalues --   -0.57479  -0.56648  -0.56189  -0.55715  -0.55053
 Alpha  occ. eigenvalues --   -0.54795  -0.54427  -0.54276  -0.54055  -0.53409
 Alpha  occ. eigenvalues --   -0.52920  -0.52611  -0.52472  -0.52131  -0.51552
 Alpha  occ. eigenvalues --   -0.51461  -0.51002  -0.49604  -0.49044  -0.48317
 Alpha  occ. eigenvalues --   -0.48022  -0.47392  -0.46389  -0.45428  -0.44736
 Alpha  occ. eigenvalues --   -0.44374  -0.43375  -0.42683  -0.42238
 Alpha virt. eigenvalues --   -0.06781  -0.05158   0.02313   0.03468   0.05997
 Alpha virt. eigenvalues --    0.08921   0.09681   0.10655   0.11408   0.11548
 Alpha virt. eigenvalues --    0.13366   0.13879   0.14460   0.14733   0.15885

  Beta  occ. eigenvalues --  -24.86681 -24.86327 -24.85803 -24.85772 -24.85580
  Beta  occ. eigenvalues --  -24.85537 -24.85383 -24.85085 -24.84700 -19.36058
  Beta  occ. eigenvalues --  -19.34455 -19.31254 -19.29515 -14.64607 -14.58719
  Beta  occ. eigenvalues --  -14.57531 -10.61992 -10.57646 -10.57289 -10.54475
  Beta  occ. eigenvalues --  -10.52390 -10.52055 -10.51121 -10.40001 -10.35442
  Beta  occ. eigenvalues --  -10.33512 -10.30308 -10.27987  -1.45463  -1.43966
  Beta  occ. eigenvalues --   -1.42458  -1.38417  -1.35689  -1.35636  -1.35390
  Beta  occ. eigenvalues --   -1.34383  -1.34121  -1.30212  -1.25069  -1.23730
  Beta  occ. eigenvalues --   -1.23480  -1.16699  -1.14486  -1.12616  -0.97187
  Beta  occ. eigenvalues --   -0.95834  -0.90506  -0.90437  -0.89084  -0.84835
  Beta  occ. eigenvalues --   -0.83825  -0.82703  -0.80700  -0.79284  -0.78125
  Beta  occ. eigenvalues --   -0.75718  -0.75089  -0.73058  -0.72474  -0.71608
  Beta  occ. eigenvalues --   -0.71014  -0.70804  -0.69689  -0.69280  -0.67905
  Beta  occ. eigenvalues --   -0.67717  -0.66297  -0.63433  -0.62654  -0.62337
  Beta  occ. eigenvalues --   -0.61721  -0.61169  -0.60512  -0.59657  -0.59400
  Beta  occ. eigenvalues --   -0.59138  -0.58932  -0.58569  -0.58076  -0.57883
  Beta  occ. eigenvalues --   -0.57460  -0.56584  -0.56112  -0.55295  -0.54805
  Beta  occ. eigenvalues --   -0.54409  -0.54194  -0.53895  -0.53695  -0.52964
  Beta  occ. eigenvalues --   -0.52672  -0.52529  -0.52411  -0.52116  -0.51454
  Beta  occ. eigenvalues --   -0.51018  -0.50907  -0.48882  -0.48152  -0.47797
  Beta  occ. eigenvalues --   -0.47343  -0.45908  -0.45492  -0.44393  -0.43744
  Beta  occ. eigenvalues --   -0.43320  -0.42025  -0.40960
  Beta virt. eigenvalues --   -0.28124  -0.05721  -0.04117   0.02326   0.04323
  Beta virt. eigenvalues --    0.06177   0.09302   0.09732   0.10978   0.11565
  Beta virt. eigenvalues --    0.11639   0.13504   0.13988   0.14484   0.14831

 Mulliken charges and spin densities:
               1          2
     1  C   -0.330344   0.015360
     2  C   -0.194207   0.017304
     3  C   -0.204524   0.098953
     4  C   -0.102851   0.022503
     5  N   -0.444956   0.544324
     6  C    0.855642  -0.075761
     7  O   -0.436104   0.070644
     8  N   -0.545170   0.101899
     9  C   -0.199656  -0.000469
    10  C    0.847972  -0.024513
    11  O   -0.442183   0.043320
    12  N   -0.636207  -0.016887
    13  C    0.762625  -0.000535
    14  F   -0.245541   0.000340
    15  F   -0.247636   0.001600
    16  C    0.441001  -0.000624
    17  F   -0.249210   0.000265
    18  O   -0.519463   0.000780
    19  C    1.001690   0.000032
    20  F   -0.237870  -0.000001
    21  F   -0.238260   0.000012
    22  F   -0.238265   0.000087
    23  C    0.819904  -0.000174
    24  F   -0.254299  -0.000042
    25  F   -0.243277   0.000017
    26  F   -0.239617   0.000002
    27  C    0.886405  -0.131945
    28  O   -0.367532   0.284996
    29  H    0.137201   0.008681
    30  H    0.125163  -0.000634
    31  H    0.125343  -0.000613
    32  H    0.134025  -0.000764
    33  H    0.134536  -0.000429
    34  H    0.161569  -0.003487
    35  H    0.159269  -0.002123
    36  H    0.225876   0.017091
    37  H    0.220931   0.012953
    38  H    0.190710   0.002510
    39  H    0.193394   0.013294
    40  H    0.193916   0.002036
 Sum of Mulliken charges =   1.00000   1.00000

 Dipole moment (field-independent basis, Debye):
    X=             -7.2481    Y=             -3.2231    Z=              3.7794  Tot=              8.7868
 Quadrupole moment (field-independent basis, Debye-Ang):
   XX=           -135.3176   YY=           -140.3717   ZZ=           -133.6017
   XY=              1.5482   XZ=              4.3581   YZ=             -7.7956

 Normal termination of Gaussian 09 at Sun Mar  3 17:39:55 2024.
