 Gaussian 09, Revision D.01,
 Gaussian 09:  ES64L-G09RevD.01 24-Apr-2013

 ----------------------------------------------------------------------
 #p CAM-B3LYP/6-31G(d,p) opt SCRF=(PCM,Solvent=Generic,Read) NoSymm out
 =wfn
 ----------------------------------------------------------------------

 -----------------
 Title DIPEDA0_neu
 -----------------
 Symbolic Z-matrix:
 Charge =  0 Multiplicity = 1

 SCF Done:  E(RCAM-B3LYP) =  -2029.83535440     A.U. after   13 cycles
 SCF Done:  E(RCAM-B3LYP) =  -2029.85547088     A.U. after   13 cycles
 SCF Done:  E(RCAM-B3LYP) =  -2029.86448703     A.U. after   12 cycles
 SCF Done:  E(RCAM-B3LYP) =  -2029.86645817     A.U. after   12 cycles
 SCF Done:  E(RCAM-B3LYP) =  -2029.86743551     A.U. after   12 cycles
 SCF Done:  E(RCAM-B3LYP) =  -2029.86795483     A.U. after   11 cycles
 SCF Done:  E(RCAM-B3LYP) =  -2029.86799204     A.U. after   11 cycles
 SCF Done:  E(RCAM-B3LYP) =  -2029.86824166     A.U. after   11 cycles
 SCF Done:  E(RCAM-B3LYP) =  -2029.86834528     A.U. after   10 cycles
 SCF Done:  E(RCAM-B3LYP) =  -2029.86836759     A.U. after   11 cycles
 SCF Done:  E(RCAM-B3LYP) =  -2029.86844748     A.U. after    9 cycles
 SCF Done:  E(RCAM-B3LYP) =  -2029.86844940     A.U. after    8 cycles
 SCF Done:  E(RCAM-B3LYP) =  -2029.86845042     A.U. after    8 cycles
 SCF Done:  E(RCAM-B3LYP) =  -2029.86845175     A.U. after    8 cycles
 SCF Done:  E(RCAM-B3LYP) =  -2029.86845215     A.U. after    7 cycles
 SCF Done:  E(RCAM-B3LYP) =  -2029.86845247     A.U. after    7 cycles
 SCF Done:  E(RCAM-B3LYP) =  -2029.86845257     A.U. after    6 cycles
 SCF Done:  E(RCAM-B3LYP) =  -2029.86845262     A.U. after    7 cycles
 SCF Done:  E(RCAM-B3LYP) =  -2029.86845264     A.U. after    6 cycles
 SCF Done:  E(RCAM-B3LYP) =  -2029.86845264     A.U. after    6 cycles
 Optimization completed.
    -- Stationary point found.

                          Input orientation:
 ---------------------------------------------------------------------
 Center     Atomic      Atomic             Coordinates (Angstroms)
 Number     Number       Type             X           Y           Z
 ---------------------------------------------------------------------
      1          9           0        3.468807    1.900653   -2.162401
      2          6           0        3.946489    1.940734   -0.916189
      3          9           0        4.399556    3.177748   -0.685857
      4          6           0        5.069995    0.899561   -0.701214
      5          9           0        4.917625   -0.110452   -1.571067
      6          9           0        6.279081    1.449514   -0.863122
      7          6           0        4.831457    0.451757    0.748317
      8          9           0        5.408951    1.423640    1.525738
      9          6           0        5.453941   -0.874383    1.204397
     10          9           0        5.084377   -1.077954    2.480712
     11          6           0        6.995863   -0.841798    1.160677
     12          8           0        7.424463   -1.038353   -0.083055
     13          8           0        7.675937   -0.660837    2.129032
     14          9           0        5.003771   -1.891518    0.440849
     15          6           0        3.289482    0.644142    0.917552
     16          9           0        3.047237    1.119156    2.149810
     17          6           0        2.352428   -0.552527    0.671437
     18          9           0        2.580201   -1.499756    1.597003
     19          6           0        0.861531   -0.152657    0.732905
     20          7           0        0.246286   -0.107963   -0.457793
     21          6           0       -1.164525    0.232598   -0.564587
     22          6           0       -2.071080   -0.990706   -0.333939
     23          7           0       -3.499372   -0.726930   -0.316703
     24          6           0       -4.036247   -0.415264   -1.659125
     25          6           0       -4.350828    1.062852   -1.924076
     26          6           0       -5.215120   -1.318877   -2.036862
     27          6           0       -4.004272    0.053099    0.827215
     28          6           0       -5.507240   -0.161386    1.023684
     29          6           0       -3.296051   -0.325081    2.130524
     30          8           0        0.359662    0.096510    1.813935
     31          9           0        2.661020   -1.059712   -0.557578
     32          8           0        2.938907    1.623406   -0.034324
     33          1           0        8.394838   -0.983152   -0.082685
     34          1           0        0.763287   -0.386304   -1.277304
     35          1           0       -1.329006    0.664932   -1.553995
     36          1           0       -1.374030    1.004053    0.179196
     37          1           0       -1.868772   -1.727961   -1.118491
     38          1           0       -1.769210   -1.459712    0.603454
     39          1           0       -3.233167   -0.679673   -2.356125
     40          1           0       -4.606940    1.198664   -2.978517
     41          1           0       -5.197955    1.422928   -1.335870
     42          1           0       -3.494439    1.705697   -1.703481
     43          1           0       -6.114085   -1.095953   -1.459932
     44          1           0       -5.461409   -1.197419   -3.096623
     45          1           0       -4.954440   -2.364914   -1.860873
     46          1           0       -3.841395    1.133740    0.670916
     47          1           0       -6.103319    0.199541    0.185644
     48          1           0       -5.718765   -1.225797    1.159901
     49          1           0       -5.842573    0.375484    1.915208
     50          1           0       -3.396340   -1.398109    2.322666
     51          1           0       -3.769423    0.208435    2.958386
     52          1           0       -2.235192   -0.068434    2.142629
 ---------------------------------------------------------------------

 Alpha  occ. eigenvalues --  -24.83151 -24.83087 -24.82712 -24.82469 -24.82303
 Alpha  occ. eigenvalues --  -24.82262 -24.82238 -24.81781 -24.81672 -24.81525
 Alpha  occ. eigenvalues --  -19.31458 -19.30768 -19.25339 -19.21297 -14.45651
 Alpha  occ. eigenvalues --  -14.38777 -10.52221 -10.48347 -10.48053 -10.46689
 Alpha  occ. eigenvalues --  -10.46644 -10.43746 -10.42184 -10.39115 -10.29962
 Alpha  occ. eigenvalues --  -10.28618 -10.28256 -10.28098 -10.24629 -10.23866
 Alpha  occ. eigenvalues --  -10.23864 -10.23625  -1.40744  -1.38534  -1.38091
 Alpha  occ. eigenvalues --   -1.37468  -1.35717  -1.33786  -1.32941  -1.31913
 Alpha  occ. eigenvalues --   -1.31622  -1.31341  -1.22989  -1.21625  -1.14360
 Alpha  occ. eigenvalues --   -1.14029  -1.03079  -0.99819  -0.94715  -0.90383
 Alpha  occ. eigenvalues --   -0.86938  -0.86450  -0.85743  -0.82921  -0.79935
 Alpha  occ. eigenvalues --   -0.78163  -0.76277  -0.75910  -0.75464  -0.73567
 Alpha  occ. eigenvalues --   -0.72324  -0.70855  -0.70186  -0.68939  -0.68489
 Alpha  occ. eigenvalues --   -0.67933  -0.67706  -0.67172  -0.66848  -0.66526
 Alpha  occ. eigenvalues --   -0.65870  -0.65088  -0.63979  -0.62855  -0.62527
 Alpha  occ. eigenvalues --   -0.60794  -0.58674  -0.57384  -0.57209  -0.56114
 Alpha  occ. eigenvalues --   -0.55421  -0.55294  -0.55090  -0.54913  -0.54659
 Alpha  occ. eigenvalues --   -0.54491  -0.54147  -0.53749  -0.53411  -0.52733
 Alpha  occ. eigenvalues --   -0.52555  -0.52391  -0.52031  -0.51844  -0.51688
 Alpha  occ. eigenvalues --   -0.50944  -0.50879  -0.50371  -0.50026  -0.49841
 Alpha  occ. eigenvalues --   -0.49378  -0.48914  -0.48577  -0.48344  -0.48248
 Alpha  occ. eigenvalues --   -0.47443  -0.46400  -0.45702  -0.45316  -0.44791
 Alpha  occ. eigenvalues --   -0.44621  -0.44129  -0.43732  -0.42789  -0.42297
 Alpha  occ. eigenvalues --   -0.42052  -0.41772  -0.40689  -0.39953  -0.39430
 Alpha  occ. eigenvalues --   -0.38180  -0.37659  -0.37587  -0.34364  -0.33848
 Alpha  occ. eigenvalues --   -0.25739
 Alpha virt. eigenvalues --    0.01096   0.03450   0.06723   0.10377   0.11889
 Alpha virt. eigenvalues --    0.12344   0.12730   0.13572   0.14670   0.15458
 Alpha virt. eigenvalues --    0.16416   0.16559   0.16885   0.18359   0.19005

 Mulliken charges:
               1
     1  F   -0.248232
     2  C    0.755419
     3  F   -0.240744
     4  C    0.534515
     5  F   -0.254066
     6  F   -0.260262
     7  C    0.141349
     8  F   -0.295063
     9  C    0.596849
    10  F   -0.262630
    11  C    0.519767
    12  O   -0.467671
    13  O   -0.420702
    14  F   -0.266865
    15  C    0.508260
    16  F   -0.249977
    17  C    0.572961
    18  F   -0.264444
    19  C    0.545689
    20  N   -0.532659
    21  C   -0.059187
    22  C   -0.053599
    23  N   -0.430748
    24  C    0.065943
    25  C   -0.321078
    26  C   -0.296194
    27  C    0.091517
    28  C   -0.311526
    29  C   -0.348136
    30  O   -0.510481
    31  F   -0.295280
    32  O   -0.510932
    33  H    0.359315
    34  H    0.291945
    35  H    0.117517
    36  H    0.143988
    37  H    0.098332
    38  H    0.124093
    39  H    0.087916
    40  H    0.104405
    41  H    0.110013
    42  H    0.102924
    43  H    0.103645
    44  H    0.092372
    45  H    0.105966
    46  H    0.072979
    47  H    0.100501
    48  H    0.109589
    49  H    0.099492
    50  H    0.109733
    51  H    0.101889
    52  H    0.131593
 Sum of Mulliken charges =   0.00000

 Dipole moment (field-independent basis, Debye):
    X=              0.3843    Y=             -0.5268    Z=             -5.4613  Tot=              5.5001
 Quadrupole moment (field-independent basis, Debye-Ang):
   XX=           -158.6960   YY=           -183.5562   ZZ=           -190.1515
   XY=             -9.1048   XZ=            -14.6953   YZ=              0.4915

 Normal termination of Gaussian 09 at Tue Feb  4 08:57:52 2025.
