 Gaussian 09, Revision D.01,
 Gaussian 09:  ES64L-G09RevD.01 24-Apr-2013

 ----------------------------------------------------------------------
 #p CAM-B3LYP/6-31G(d,p) SCRF=(PCM,Solvent=Generic,Read) NoSymm out=wfn
 ----------------------------------------------------------------------

 --------------
 Title DBE1_neu
 --------------
 Symbolic Z-matrix:
 Charge =  0 Multiplicity = 1

                          Input orientation:
 ---------------------------------------------------------------------
 Center     Atomic      Atomic             Coordinates (Angstroms)
 Number     Number       Type             X           Y           Z
 ---------------------------------------------------------------------
      1          9           0        6.200479    0.233704    2.850674
      2          6           0        5.300728    0.910775    2.111184
      3          9           0        4.868022    1.948764    2.853544
      4          6           0        5.858995    1.334841    0.771738
      5          9           0        7.112330    1.810286    0.796160
      6          9           0        5.090347    2.339430    0.263954
      7          6           0        5.669477    0.105597   -0.065771
      8          9           0        5.577578    0.451020   -1.380485
      9          6           0        6.772359   -0.930541    0.076855
     10          9           0        6.805340   -1.416249    1.346205
     11          6           0        8.137885   -0.374077   -0.327851
     12          8           0        8.295248   -0.203300   -1.657843
     13          8           0        9.050526   -0.078583    0.429479
     14          9           0        6.458341   -2.007597   -0.708122
     15          6           0        4.339217   -0.418587    0.492835
     16          9           0        4.366410   -1.778091    0.533332
     17          6           0        3.125390    0.013038   -0.351511
     18          9           0        3.292784   -0.407819   -1.641796
     19          6           0        1.787337   -0.518463    0.199282
     20          7           0        0.677945    0.048581   -0.423656
     21          6           0       -0.671574   -0.210054    0.057223
     22          6           0       -1.720857   -0.003503   -1.052126
     23          7           0       -3.112175   -0.072840   -0.558360
     24          6           0       -4.040267    0.563701   -1.515693
     25          6           0       -4.012053    2.100494   -1.471410
     26          6           0       -4.350942    2.663009   -0.088558
     27          6           0       -4.398043    4.183096   -0.104283
     28          6           0       -3.508632   -1.473973   -0.300315
     29          6           0       -4.681449   -1.555896    0.689429
     30          6           0       -5.007071   -2.990636    1.116226
     31          6           0       -5.517735   -3.859866   -0.022502
     32          8           0        1.682204   -1.375047    1.071670
     33          9           0        3.073824    1.376604   -0.429881
     34          8           0        4.211265    0.032126    1.860297
     35          1           0        9.213455    0.126802   -1.768205
     36          1           0        0.835513    0.907511   -0.942056
     37          1           0       -0.849129    0.486357    0.884943
     38          1           0       -0.712694   -1.225731    0.461387
     39          1           0       -1.524032    0.984799   -1.483258
     40          1           0       -1.556226   -0.722444   -1.865970
     41          1           0       -5.074303    0.268835   -1.304431
     42          1           0       -3.832916    0.221682   -2.538242
     43          1           0       -4.744571    2.473274   -2.198832
     44          1           0       -3.038888    2.482930   -1.798021
     45          1           0       -3.604447    2.341340    0.646305
     46          1           0       -5.321986    2.276813    0.242543
     47          1           0       -5.160719    4.545180   -0.801123
     48          1           0       -3.431925    4.602106   -0.403264
     49          1           0       -4.640242    4.564942    0.892478
     50          1           0       -2.679049   -2.030733    0.148369
     51          1           0       -3.748662   -1.981902   -1.242350
     52          1           0       -5.584636   -1.100070    0.269575
     53          1           0       -4.428866   -0.982572    1.590727
     54          1           0       -4.122239   -3.457835    1.564003
     55          1           0       -5.775055   -2.954010    1.898191
     56          1           0       -5.824483   -4.838427    0.360740
     57          1           0       -6.383421   -3.400559   -0.510047
     58          1           0       -4.743712   -4.028235   -0.776923
 ---------------------------------------------------------------------

 SCF Done:  E(RCAM-B3LYP) =  -2108.41848215     A.U. after   13 cycles

 Alpha  occ. eigenvalues --  -24.84015 -24.82713 -24.82706 -24.82582 -24.82341
 Alpha  occ. eigenvalues --  -24.82109 -24.82055 -24.81669 -24.81417 -24.81225
 Alpha  occ. eigenvalues --  -19.31507 -19.30168 -19.25155 -19.22099 -14.45274
 Alpha  occ. eigenvalues --  -14.40087 -10.52451 -10.49096 -10.48795 -10.47490
 Alpha  occ. eigenvalues --  -10.46791 -10.44245 -10.42576 -10.39975 -10.30111
 Alpha  occ. eigenvalues --  -10.29124 -10.27866 -10.27778 -10.25120 -10.24956
 Alpha  occ. eigenvalues --  -10.24776 -10.24547 -10.24239 -10.24128  -1.40534
 Alpha  occ. eigenvalues --   -1.38179  -1.38011  -1.37332  -1.34766  -1.33976
 Alpha  occ. eigenvalues --   -1.32726  -1.31716  -1.30755  -1.30493  -1.22058
 Alpha  occ. eigenvalues --   -1.19746  -1.14067  -1.12129  -1.01987  -0.99842
 Alpha  occ. eigenvalues --   -0.97388  -0.90087  -0.87920  -0.87763  -0.86971
 Alpha  occ. eigenvalues --   -0.84619  -0.81890  -0.80383  -0.77907  -0.77509
 Alpha  occ. eigenvalues --   -0.75913  -0.73811  -0.72259  -0.71298  -0.70471
 Alpha  occ. eigenvalues --   -0.70347  -0.69520  -0.68497  -0.67759  -0.67360
 Alpha  occ. eigenvalues --   -0.66937  -0.65853  -0.65542  -0.65192  -0.64521
 Alpha  occ. eigenvalues --   -0.64485  -0.63581  -0.63170  -0.62798  -0.61121
 Alpha  occ. eigenvalues --   -0.58203  -0.57618  -0.56866  -0.56362  -0.56278
 Alpha  occ. eigenvalues --   -0.55791  -0.55489  -0.55226  -0.54376  -0.54191
 Alpha  occ. eigenvalues --   -0.53945  -0.53588  -0.53387  -0.52905  -0.52559
 Alpha  occ. eigenvalues --   -0.52294  -0.52115  -0.51990  -0.51839  -0.51625
 Alpha  occ. eigenvalues --   -0.51117  -0.50861  -0.50705  -0.50090  -0.49863
 Alpha  occ. eigenvalues --   -0.49302  -0.49046  -0.48365  -0.48219  -0.48110
 Alpha  occ. eigenvalues --   -0.47757  -0.47618  -0.46568  -0.46284  -0.45210
 Alpha  occ. eigenvalues --   -0.44772  -0.44258  -0.43667  -0.43228  -0.42502
 Alpha  occ. eigenvalues --   -0.41999  -0.41695  -0.40905  -0.40723  -0.39236
 Alpha  occ. eigenvalues --   -0.38842  -0.38686  -0.38379  -0.37632  -0.37617
 Alpha  occ. eigenvalues --   -0.37448  -0.34669  -0.32810  -0.27784
 Alpha virt. eigenvalues --   -0.00039   0.02236   0.04531   0.08963   0.10352
 Alpha virt. eigenvalues --    0.11511   0.12416   0.13414   0.13923   0.14239
 Alpha virt. eigenvalues --    0.14645   0.15571   0.15666   0.16537   0.17749

 Mulliken charges:
               1
     1  F   -0.237306
     2  C    0.749614
     3  F   -0.246913
     4  C    0.546717
     5  F   -0.245804
     6  F   -0.265616
     7  C    0.131115
     8  F   -0.282923
     9  C    0.627999
    10  F   -0.262707
    11  C    0.526048
    12  O   -0.472357
    13  O   -0.444716
    14  F   -0.275945
    15  C    0.485929
    16  F   -0.270531
    17  C    0.548319
    18  F   -0.275428
    19  C    0.578434
    20  N   -0.568805
    21  C   -0.033464
    22  C   -0.047069
    23  N   -0.441014
    24  C   -0.041450
    25  C   -0.183085
    26  C   -0.162051
    27  C   -0.319382
    28  C   -0.037077
    29  C   -0.174172
    30  C   -0.186229
    31  C   -0.317839
    32  O   -0.492337
    33  F   -0.281893
    34  O   -0.488712
    35  H    0.361202
    36  H    0.284617
    37  H    0.132888
    38  H    0.148024
    39  H    0.096096
    40  H    0.095511
    41  H    0.103044
    42  H    0.077095
    43  H    0.093627
    44  H    0.088992
    45  H    0.106343
    46  H    0.090038
    47  H    0.100152
    48  H    0.099025
    49  H    0.100796
    50  H    0.098620
    51  H    0.085031
    52  H    0.093041
    53  H    0.103419
    54  H    0.096550
    55  H    0.095847
    56  H    0.102921
    57  H    0.101896
    58  H    0.105874
 Sum of Mulliken charges =   0.00000

 Dipole moment (field-independent basis, Debye):
    X=             -2.1107    Y=              2.1736    Z=             -3.9826  Tot=              5.0041
 Quadrupole moment (field-independent basis, Debye-Ang):
   XX=           -181.2411   YY=           -197.2237   ZZ=           -197.7297
   XY=              9.2508   XZ=            -18.3452   YZ=              0.2614

 Normal termination of Gaussian 09 at Mon Feb  3 21:49:30 2025.
