 Gaussian 09, Revision D.01,
 Gaussian 09:  ES64L-G09RevD.01 24-Apr-2013

 ----------------------------------------------------------------------
 #p CAM-B3LYP/6-31G(d,p) opt SCRF=(PCM,Solvent=Generic,Read) NoSymm out
 =wfn
 ----------------------------------------------------------------------

 ------------
 Title S2_neu
 ------------
 Symbolic Z-matrix:
 Charge =  0 Multiplicity = 1

 SCF Done:  E(RCAM-B3LYP) =  -1976.96721707     A.U. after   12 cycles
 SCF Done:  E(RCAM-B3LYP) =  -1976.98297764     A.U. after   11 cycles
 SCF Done:  E(RCAM-B3LYP) =  -1976.99046630     A.U. after   10 cycles
 SCF Done:  E(RCAM-B3LYP) =  -1976.99201233     A.U. after   10 cycles
 SCF Done:  E(RCAM-B3LYP) =  -1976.99361459     A.U. after   10 cycles
 SCF Done:  E(RCAM-B3LYP) =  -1976.99194113     A.U. after   10 cycles
 SCF Done:  E(RCAM-B3LYP) =  -1976.99425065     A.U. after    8 cycles
 SCF Done:  E(RCAM-B3LYP) =  -1976.99472424     A.U. after    9 cycles
 SCF Done:  E(RCAM-B3LYP) =  -1976.99491415     A.U. after    9 cycles
 SCF Done:  E(RCAM-B3LYP) =  -1976.99497257     A.U. after    9 cycles
 SCF Done:  E(RCAM-B3LYP) =  -1976.99500318     A.U. after    8 cycles
 SCF Done:  E(RCAM-B3LYP) =  -1976.99500797     A.U. after    8 cycles
 SCF Done:  E(RCAM-B3LYP) =  -1976.99500901     A.U. after    7 cycles
 SCF Done:  E(RCAM-B3LYP) =  -1976.99500937     A.U. after    6 cycles
 Optimization completed.
    -- Stationary point found.

                          Input orientation:
 ---------------------------------------------------------------------
 Center     Atomic      Atomic             Coordinates (Angstroms)
 Number     Number       Type             X           Y           Z
 ---------------------------------------------------------------------
      1          9           0       -0.098614   -0.076450    1.442940
      2          6           0        0.420740   -0.235717    0.188680
      3          6           0        1.443145    0.892528   -0.045012
      4          9           0        0.777232    2.066444   -0.068632
      5          6           0        2.530232    1.015053    1.042782
      6          9           0        3.395144    1.956097    0.678211
      7          9           0        3.179728   -0.144359    1.168783
      8          9           0        1.996130    1.345714    2.213049
      9          9           0        2.066117    0.722984   -1.221976
     10          6           0       -0.739060   -0.249810   -0.861925
     11          8           0       -0.950044   -1.588824   -1.210256
     12          6           0       -0.249609   -2.471763   -0.417780
     13          9           0        0.099061   -3.524052   -1.147317
     14          9           0       -1.004686   -2.890584    0.607147
     15          6           0        0.961692   -1.683145    0.110119
     16          9           0        1.364346   -2.128033    1.301663
     17          9           0        1.961739   -1.792233   -0.779621
     18          6           0       -2.120986    0.290727   -0.409725
     19          9           0       -2.946740    0.097172   -1.456730
     20          6           0       -2.247290    1.778018   -0.027950
     21          9           0       -3.538156    2.059159    0.136050
     22          9           0       -1.757292    2.547725   -0.997779
     23          9           0       -1.607622    2.041802    1.108668
     24          9           0       -2.549363   -0.449334    0.627856
     25          9           0       -0.385842    0.420882   -1.981243
 ---------------------------------------------------------------------

 Alpha  occ. eigenvalues --  -24.84053 -24.83727 -24.83720 -24.83684 -24.83673
 Alpha  occ. eigenvalues --  -24.83582 -24.83569 -24.83533 -24.83433 -24.83410
 Alpha  occ. eigenvalues --  -24.83340 -24.83227 -24.83154 -24.83139 -24.82794
 Alpha  occ. eigenvalues --  -24.82771 -19.32264 -10.54945 -10.54522 -10.52729
 Alpha  occ. eigenvalues --  -10.49512 -10.48998 -10.48646 -10.48092 -10.43617
 Alpha  occ. eigenvalues --   -1.43576  -1.43059  -1.41377  -1.39448  -1.38966
 Alpha  occ. eigenvalues --   -1.38687  -1.36274  -1.35868  -1.34212  -1.33825
 Alpha  occ. eigenvalues --   -1.33782  -1.33616  -1.33292  -1.32911  -1.32546
 Alpha  occ. eigenvalues --   -1.32242  -1.22591  -0.95823  -0.91813  -0.89224
 Alpha  occ. eigenvalues --   -0.86532  -0.81630  -0.78442  -0.76718  -0.75775
 Alpha  occ. eigenvalues --   -0.72765  -0.72205  -0.71111  -0.70982  -0.70568
 Alpha  occ. eigenvalues --   -0.69954  -0.69691  -0.69466  -0.68520  -0.68216
 Alpha  occ. eigenvalues --   -0.67244  -0.66600  -0.66201  -0.65580  -0.64583
 Alpha  occ. eigenvalues --   -0.63281  -0.58714  -0.57845  -0.57457  -0.57152
 Alpha  occ. eigenvalues --   -0.56779  -0.56607  -0.56502  -0.56016  -0.55814
 Alpha  occ. eigenvalues --   -0.55394  -0.54958  -0.54659  -0.54355  -0.54158
 Alpha  occ. eigenvalues --   -0.53946  -0.53561  -0.53049  -0.52798  -0.52548
 Alpha  occ. eigenvalues --   -0.51982  -0.51701  -0.51587  -0.50953  -0.50894
 Alpha  occ. eigenvalues --   -0.50568  -0.50384  -0.50116  -0.49801  -0.48931
 Alpha  occ. eigenvalues --   -0.48025  -0.46352  -0.44398  -0.43148  -0.41671
 Alpha virt. eigenvalues --    0.03524   0.08102   0.09335   0.12752   0.13784
 Alpha virt. eigenvalues --    0.14809   0.16414   0.19026   0.20966   0.23777
 Alpha virt. eigenvalues --    0.24409   0.25194   0.25615   0.26103   0.26849

 Mulliken charges:
               1
     1  F   -0.288100
     2  C    0.117520
     3  C    0.524370
     4  F   -0.268370
     5  C    0.779683
     6  F   -0.236064
     7  F   -0.237863
     8  F   -0.230605
     9  F   -0.258079
    10  C    0.496058
    11  O   -0.491973
    12  C    0.757225
    13  F   -0.235041
    14  F   -0.244672
    15  C    0.534298
    16  F   -0.251674
    17  F   -0.254944
    18  C    0.515492
    19  F   -0.265412
    20  C    0.775155
    21  F   -0.239721
    22  F   -0.239357
    23  F   -0.237544
    24  F   -0.260877
    25  F   -0.259506
 Sum of Mulliken charges =   0.00000

 Dipole moment (field-independent basis, Debye):
    X=              0.6326    Y=              0.1016    Z=              0.2554  Tot=              0.6898
 Quadrupole moment (field-independent basis, Debye-Ang):
   XX=           -130.2727   YY=           -129.9075   ZZ=           -131.0281
   XY=             -0.5400   XZ=             -0.0019   YZ=              0.1021

 Normal termination of Gaussian 09 at Thu Feb  6 02:19:40 2025.
