 Gaussian 09, Revision D.01,
 Gaussian 09:  ES64L-G09RevD.01 24-Apr-2013

 ----------------------------------------------------------------------
 #p CAM-B3LYP/6-31G(d,p) SCRF=(PCM,Solvent=Generic,Read) NoSymm out=wfn
 ----------------------------------------------------------------------

 -------------------
 Title A150513911_p1
 -------------------
 Symbolic Z-matrix:
 Charge =  1 Multiplicity = 2

                          Input orientation:
 ---------------------------------------------------------------------
 Center     Atomic      Atomic             Coordinates (Angstroms)
 Number     Number       Type             X           Y           Z
 ---------------------------------------------------------------------
      1          8           0        1.408412    1.784144   -0.012789
      2          6           0        0.440768    1.060951    0.191879
      3          7           0       -0.725108    1.246875   -0.495715
      4          6           0       -0.876454    2.338728   -1.455532
      5          9           0       -2.192036    2.352493   -1.841659
      6          9           0       -0.207629    1.965114   -2.585483
      7          6           0       -0.494953    3.806254   -1.090049
      8          9           0       -1.014787    4.608139   -2.080247
      9          8           0        0.913128    4.005463   -1.174201
     10          6           0        1.335836    5.211771   -0.605742
     11          9           0        2.613430    5.439467   -0.959404
     12          9           0        1.264512    5.122968    0.733117
     13          9           0        0.577029    6.233139   -1.035513
     14          6           0       -1.223812    4.115343    0.221878
     15          9           0       -2.540509    3.801638    0.154349
     16          9           0       -1.157113    5.422206    0.557723
     17          9           0       -0.720958    3.411849    1.263088
     18          6           0       -1.878484    0.453658   -0.202894
     19          7           0       -1.521983   -0.846922    0.264597
     20          6           0       -2.511660   -1.906435    0.138140
     21          9           0       -3.719474   -1.272365   -0.020116
     22          9           0       -2.644700   -2.578008    1.306517
     23          6           0       -2.356439   -2.873241   -1.061274
     24          9           0       -2.154156   -2.070708   -2.173946
     25          8           0       -3.540884   -3.597600   -1.431626
     26          6           0       -4.136376   -4.324584   -0.387713
     27          9           0       -3.222395   -5.036177    0.279731
     28          9           0       -5.040799   -5.167686   -0.917103
     29          9           0       -4.766847   -3.487156    0.449032
     30          6           0       -1.107290   -3.743862   -0.917081
     31          9           0       -1.062626   -4.671274   -1.909069
     32          9           0       -1.032198   -4.412532    0.246323
     33          9           0        0.022063   -3.003289   -1.042902
     34          6           0       -0.385635   -1.043455    0.991549
     35          8           0       -0.134140   -2.143201    1.469291
     36          7           0        0.454921    0.035221    1.107939
     37          6           0        1.682723   -0.167570    1.868483
     38          9           0        1.358961   -0.765597    3.051978
     39          9           0        2.155404    1.053974    2.255471
     40          6           0        2.803099   -0.967532    1.150203
     41          9           0        2.399317   -2.260426    0.982677
     42          8           0        2.991855   -0.457783   -0.174243
     43          6           0        4.136662   -0.965702   -0.806170
     44          9           0        4.247104   -2.289931   -0.622214
     45          9           0        4.041149   -0.717569   -2.125488
     46          9           0        5.222967   -0.338841   -0.326995
     47          6           0        4.005795   -0.920411    2.102965
     48          9           0        4.518791    0.326439    2.206615
     49          9           0        3.704956   -1.338042    3.351873
     50          9           0        5.013502   -1.717450    1.671480
     51          1           0       -2.462983    0.327399   -1.119896
     52          1           0       -2.479955    0.962115    0.558163
 ---------------------------------------------------------------------

 SCF Done:  E(UCAM-B3LYP) =  -3807.48097477     A.U. after   37 cycles

 Alpha  occ. eigenvalues --  -24.90384 -24.89323 -24.88971 -24.88918 -24.88774
 Alpha  occ. eigenvalues --  -24.88305 -24.87978 -24.87220 -24.87210 -24.87088
 Alpha  occ. eigenvalues --  -24.86879 -24.86854 -24.86735 -24.86332 -24.86278
 Alpha  occ. eigenvalues --  -24.86059 -24.85959 -24.85957 -24.85937 -24.85876
 Alpha  occ. eigenvalues --  -24.85847 -24.85709 -24.85646 -24.85610 -24.85509
 Alpha  occ. eigenvalues --  -24.85207 -24.84881 -19.37025 -19.36466 -19.36226
 Alpha  occ. eigenvalues --  -19.34497 -19.32804 -14.65266 -14.63097 -14.59938
 Alpha  occ. eigenvalues --  -10.62571 -10.62254 -10.62020 -10.60471 -10.60204
 Alpha  occ. eigenvalues --  -10.59834 -10.58859 -10.58053 -10.57853 -10.54889
 Alpha  occ. eigenvalues --  -10.54219 -10.53937 -10.53914 -10.52440 -10.49686
 Alpha  occ. eigenvalues --   -1.47065  -1.46579  -1.45613  -1.45510  -1.45346
 Alpha  occ. eigenvalues --   -1.45201  -1.44872  -1.44230  -1.42954  -1.39893
 Alpha  occ. eigenvalues --   -1.39138  -1.38801  -1.38416  -1.38065  -1.37630
 Alpha  occ. eigenvalues --   -1.36992  -1.36827  -1.36149  -1.36083  -1.35975
 Alpha  occ. eigenvalues --   -1.35754  -1.35703  -1.35444  -1.35436  -1.35123
 Alpha  occ. eigenvalues --   -1.34622  -1.34281  -1.31645  -1.27454  -1.24301
 Alpha  occ. eigenvalues --   -1.24260  -1.23731  -1.22445  -1.17216  -1.16942
 Alpha  occ. eigenvalues --   -1.00123  -0.98302  -0.98004  -0.95437  -0.92518
 Alpha  occ. eigenvalues --   -0.91685  -0.86940  -0.86197  -0.85481  -0.84960
 Alpha  occ. eigenvalues --   -0.84601  -0.82608  -0.81969  -0.80101  -0.79368
 Alpha  occ. eigenvalues --   -0.78481  -0.77560  -0.76872  -0.76769  -0.76030
 Alpha  occ. eigenvalues --   -0.75750  -0.75302  -0.75242  -0.74071  -0.73748
 Alpha  occ. eigenvalues --   -0.73534  -0.73195  -0.72860  -0.72816  -0.72592
 Alpha  occ. eigenvalues --   -0.72510  -0.72099  -0.71884  -0.71394  -0.71132
 Alpha  occ. eigenvalues --   -0.70891  -0.70405  -0.70329  -0.69999  -0.69882
 Alpha  occ. eigenvalues --   -0.69314  -0.68593  -0.68250  -0.67974  -0.65061
 Alpha  occ. eigenvalues --   -0.64632  -0.63540  -0.62817  -0.62760  -0.62478
 Alpha  occ. eigenvalues --   -0.62307  -0.61927  -0.61467  -0.60953  -0.60761
 Alpha  occ. eigenvalues --   -0.60602  -0.60527  -0.60355  -0.59840  -0.59759
 Alpha  occ. eigenvalues --   -0.59606  -0.59493  -0.59248  -0.59162  -0.58900
 Alpha  occ. eigenvalues --   -0.58838  -0.58698  -0.58636  -0.58386  -0.58176
 Alpha  occ. eigenvalues --   -0.57831  -0.57656  -0.57218  -0.56965  -0.56833
 Alpha  occ. eigenvalues --   -0.56603  -0.56411  -0.56302  -0.56257  -0.55991
 Alpha  occ. eigenvalues --   -0.55723  -0.55391  -0.55154  -0.55037  -0.54866
 Alpha  occ. eigenvalues --   -0.54689  -0.54448  -0.54367  -0.54256  -0.54188
 Alpha  occ. eigenvalues --   -0.53800  -0.53438  -0.53224  -0.53140  -0.53019
 Alpha  occ. eigenvalues --   -0.52790  -0.52706  -0.52376  -0.52231  -0.52162
 Alpha  occ. eigenvalues --   -0.51916  -0.51811  -0.51184  -0.50842  -0.50064
 Alpha  occ. eigenvalues --   -0.49382  -0.49044  -0.48870  -0.48104  -0.47307
 Alpha  occ. eigenvalues --   -0.46748  -0.45661  -0.45212
 Alpha virt. eigenvalues --   -0.07787  -0.02900  -0.00751   0.00392   0.01032
 Alpha virt. eigenvalues --    0.02114   0.03028   0.05128   0.06146   0.07984
 Alpha virt. eigenvalues --    0.08500   0.09314   0.09898   0.10200   0.11368

  Beta  occ. eigenvalues --  -24.90380 -24.89309 -24.88961 -24.88829 -24.88770
  Beta  occ. eigenvalues --  -24.88305 -24.87973 -24.87213 -24.87208 -24.87087
  Beta  occ. eigenvalues --  -24.86879 -24.86854 -24.86729 -24.86331 -24.86278
  Beta  occ. eigenvalues --  -24.86059 -24.85956 -24.85956 -24.85937 -24.85876
  Beta  occ. eigenvalues --  -24.85846 -24.85709 -24.85644 -24.85610 -24.85509
  Beta  occ. eigenvalues --  -24.85207 -24.84881 -19.37006 -19.36461 -19.36221
  Beta  occ. eigenvalues --  -19.33967 -19.32438 -14.64452 -14.62534 -14.59988
  Beta  occ. eigenvalues --  -10.62572 -10.62254 -10.62020 -10.60507 -10.60205
  Beta  occ. eigenvalues --  -10.59860 -10.58857 -10.58052 -10.57854 -10.55063
  Beta  occ. eigenvalues --  -10.54209 -10.54038 -10.53909 -10.52442 -10.49658
  Beta  occ. eigenvalues --   -1.47049  -1.46563  -1.45527  -1.45508  -1.45344
  Beta  occ. eigenvalues --   -1.45175  -1.44854  -1.44229  -1.42953  -1.39877
  Beta  occ. eigenvalues --   -1.39121  -1.38795  -1.38301  -1.38033  -1.37609
  Beta  occ. eigenvalues --   -1.36989  -1.36825  -1.36143  -1.36075  -1.35974
  Beta  occ. eigenvalues --   -1.35752  -1.35702  -1.35443  -1.35435  -1.35119
  Beta  occ. eigenvalues --   -1.34620  -1.34280  -1.31012  -1.26681  -1.24260
  Beta  occ. eigenvalues --   -1.24239  -1.23706  -1.21266  -1.16669  -1.15832
  Beta  occ. eigenvalues --   -0.99928  -0.98174  -0.97814  -0.94988  -0.92347
  Beta  occ. eigenvalues --   -0.91527  -0.86875  -0.86087  -0.85458  -0.84892
  Beta  occ. eigenvalues --   -0.84566  -0.82422  -0.81824  -0.79841  -0.79319
  Beta  occ. eigenvalues --   -0.78380  -0.77158  -0.76746  -0.76537  -0.75978
  Beta  occ. eigenvalues --   -0.75603  -0.75264  -0.74937  -0.73990  -0.73564
  Beta  occ. eigenvalues --   -0.73162  -0.72980  -0.72742  -0.72701  -0.72516
  Beta  occ. eigenvalues --   -0.72266  -0.72065  -0.71722  -0.71302  -0.71018
  Beta  occ. eigenvalues --   -0.70833  -0.70272  -0.70202  -0.69855  -0.69826
  Beta  occ. eigenvalues --   -0.69207  -0.68423  -0.68191  -0.67549  -0.63738
  Beta  occ. eigenvalues --   -0.63699  -0.62870  -0.62778  -0.62583  -0.62264
  Beta  occ. eigenvalues --   -0.62159  -0.61649  -0.61327  -0.60911  -0.60575
  Beta  occ. eigenvalues --   -0.60544  -0.60418  -0.60159  -0.59737  -0.59641
  Beta  occ. eigenvalues --   -0.59497  -0.59452  -0.59201  -0.59079  -0.58835
  Beta  occ. eigenvalues --   -0.58756  -0.58583  -0.58426  -0.58348  -0.58131
  Beta  occ. eigenvalues --   -0.57703  -0.57610  -0.57175  -0.56908  -0.56773
  Beta  occ. eigenvalues --   -0.56524  -0.56372  -0.56257  -0.56227  -0.55929
  Beta  occ. eigenvalues --   -0.55638  -0.55317  -0.55134  -0.55012  -0.54836
  Beta  occ. eigenvalues --   -0.54611  -0.54368  -0.54330  -0.54172  -0.54096
  Beta  occ. eigenvalues --   -0.53780  -0.53423  -0.53160  -0.53122  -0.52975
  Beta  occ. eigenvalues --   -0.52749  -0.52676  -0.52373  -0.52212  -0.52071
  Beta  occ. eigenvalues --   -0.51846  -0.51739  -0.51177  -0.49935  -0.49384
  Beta  occ. eigenvalues --   -0.48894  -0.47945  -0.47748  -0.46945  -0.44946
  Beta  occ. eigenvalues --   -0.44591  -0.43727
  Beta virt. eigenvalues --   -0.30574  -0.06661  -0.02401  -0.00465   0.00656
  Beta virt. eigenvalues --    0.01135   0.02160   0.03275   0.05309   0.06324
  Beta virt. eigenvalues --    0.08343   0.08686   0.09667   0.10123   0.10526

 Mulliken charges and spin densities:
               1          2
     1  O   -0.380213   0.210420
     2  C    0.899454  -0.099279
     3  N   -0.530742   0.374821
     4  C    0.756186  -0.020926
     5  F   -0.246666   0.001252
     6  F   -0.222679   0.022965
     7  C    0.434796   0.004271
     8  F   -0.250727   0.001419
     9  O   -0.479436   0.001396
    10  C    1.001372   0.000088
    11  F   -0.229972   0.000103
    12  F   -0.243474   0.000029
    13  F   -0.239783   0.000164
    14  C    0.813004  -0.000688
    15  F   -0.240293   0.000001
    16  F   -0.235116   0.000081
    17  F   -0.242842   0.001165
    18  C    0.098436  -0.009525
    19  N   -0.557702   0.263533
    20  C    0.742638  -0.014157
    21  F   -0.257616   0.003548
    22  F   -0.218668   0.003038
    23  C    0.450753   0.010206
    24  F   -0.272787   0.001524
    25  O   -0.485208   0.006620
    26  C    0.988684  -0.000206
    27  F   -0.231157  -0.000023
    28  F   -0.229721   0.000106
    29  F   -0.237445   0.000184
    30  C    0.818853   0.000357
    31  F   -0.241296   0.000378
    32  F   -0.223940   0.000125
    33  F   -0.249940   0.001758
    34  C    0.891488  -0.070642
    35  O   -0.408306   0.145407
    36  N   -0.671170  -0.013637
    37  C    0.762541   0.000284
    38  F   -0.244304   0.000028
    39  F   -0.244227   0.000462
    40  C    0.441622  -0.000132
    41  F   -0.248455   0.000516
    42  O   -0.517109   0.000793
    43  C    1.002728   0.000023
    44  F   -0.237593   0.000194
    45  F   -0.235588  -0.000004
    46  F   -0.238237   0.000027
    47  C    0.820517  -0.000274
    48  F   -0.242194   0.000045
    49  F   -0.239339   0.000064
    50  F   -0.252505   0.000018
    51  H    0.281586   0.048082
    52  H    0.321790   0.124002
 Sum of Mulliken charges =   1.00000   1.00000

 Dipole moment (field-independent basis, Debye):
    X=             -7.4711    Y=              2.5204    Z=             -0.4931  Tot=              7.9002
 Quadrupole moment (field-independent basis, Debye-Ang):
   XX=           -238.1966   YY=           -243.0923   ZZ=           -256.3798
   XY=             -0.2133   XZ=             -0.1466   YZ=              1.2229

 Normal termination of Gaussian 09 at Sun Mar  3 17:29:31 2024.
