 Gaussian 09, Revision D.01,
 Gaussian 09:  ES64L-G09RevD.01 24-Apr-2013

 ----------------------------------------------------------------------
 #p CAM-B3LYP/6-31G(d,p) SCRF=(PCM,Solvent=Generic,Read) NoSymm out=wfn
 ----------------------------------------------------------------------

 ------------------
 Title A150513911_0
 ------------------
 Symbolic Z-matrix:
 Charge =  0 Multiplicity = 1

                          Input orientation:
 ---------------------------------------------------------------------
 Center     Atomic      Atomic             Coordinates (Angstroms)
 Number     Number       Type             X           Y           Z
 ---------------------------------------------------------------------
      1          8           0        1.408412    1.784144   -0.012789
      2          6           0        0.440768    1.060951    0.191879
      3          7           0       -0.725108    1.246875   -0.495715
      4          6           0       -0.876454    2.338728   -1.455532
      5          9           0       -2.192036    2.352493   -1.841659
      6          9           0       -0.207629    1.965114   -2.585483
      7          6           0       -0.494953    3.806254   -1.090049
      8          9           0       -1.014787    4.608139   -2.080247
      9          8           0        0.913128    4.005463   -1.174201
     10          6           0        1.335836    5.211771   -0.605742
     11          9           0        2.613430    5.439467   -0.959404
     12          9           0        1.264512    5.122968    0.733117
     13          9           0        0.577029    6.233139   -1.035513
     14          6           0       -1.223812    4.115343    0.221878
     15          9           0       -2.540509    3.801638    0.154349
     16          9           0       -1.157113    5.422206    0.557723
     17          9           0       -0.720958    3.411849    1.263088
     18          6           0       -1.878484    0.453658   -0.202894
     19          7           0       -1.521983   -0.846922    0.264597
     20          6           0       -2.511660   -1.906435    0.138140
     21          9           0       -3.719474   -1.272365   -0.020116
     22          9           0       -2.644700   -2.578008    1.306517
     23          6           0       -2.356439   -2.873241   -1.061274
     24          9           0       -2.154156   -2.070708   -2.173946
     25          8           0       -3.540884   -3.597600   -1.431626
     26          6           0       -4.136376   -4.324584   -0.387713
     27          9           0       -3.222395   -5.036177    0.279731
     28          9           0       -5.040799   -5.167686   -0.917103
     29          9           0       -4.766847   -3.487156    0.449032
     30          6           0       -1.107290   -3.743862   -0.917081
     31          9           0       -1.062626   -4.671274   -1.909069
     32          9           0       -1.032198   -4.412532    0.246323
     33          9           0        0.022063   -3.003289   -1.042902
     34          6           0       -0.385635   -1.043455    0.991549
     35          8           0       -0.134140   -2.143201    1.469291
     36          7           0        0.454921    0.035221    1.107939
     37          6           0        1.682723   -0.167570    1.868483
     38          9           0        1.358961   -0.765597    3.051978
     39          9           0        2.155404    1.053974    2.255471
     40          6           0        2.803099   -0.967532    1.150203
     41          9           0        2.399317   -2.260426    0.982677
     42          8           0        2.991855   -0.457783   -0.174243
     43          6           0        4.136662   -0.965702   -0.806170
     44          9           0        4.247104   -2.289931   -0.622214
     45          9           0        4.041149   -0.717569   -2.125488
     46          9           0        5.222967   -0.338841   -0.326995
     47          6           0        4.005795   -0.920411    2.102965
     48          9           0        4.518791    0.326439    2.206615
     49          9           0        3.704956   -1.338042    3.351873
     50          9           0        5.013502   -1.717450    1.671480
     51          1           0       -2.462983    0.327399   -1.119896
     52          1           0       -2.479955    0.962115    0.558163
 ---------------------------------------------------------------------

 SCF Done:  E(RCAM-B3LYP) =  -3807.81498605     A.U. after   13 cycles

 Alpha  occ. eigenvalues --  -24.84469 -24.84425 -24.84314 -24.84108 -24.83712
 Alpha  occ. eigenvalues --  -24.83682 -24.83650 -24.83632 -24.83547 -24.83516
 Alpha  occ. eigenvalues --  -24.83442 -24.83428 -24.83407 -24.83349 -24.83334
 Alpha  occ. eigenvalues --  -24.83287 -24.83282 -24.83280 -24.82880 -24.82850
 Alpha  occ. eigenvalues --  -24.82773 -24.82764 -24.82715 -24.82635 -24.82635
 Alpha  occ. eigenvalues --  -24.82477 -24.82067 -19.33396 -19.32901 -19.32549
 Alpha  occ. eigenvalues --  -19.23322 -19.23214 -14.52453 -14.50976 -14.50790
 Alpha  occ. eigenvalues --  -10.59878 -10.59474 -10.59353 -10.56282 -10.55257
 Alpha  occ. eigenvalues --  -10.55217 -10.53412 -10.53288 -10.53236 -10.49343
 Alpha  occ. eigenvalues --  -10.49232 -10.48843 -10.45677 -10.45610 -10.38348
 Alpha  occ. eigenvalues --   -1.43669  -1.43394  -1.43125  -1.42389  -1.41625
 Alpha  occ. eigenvalues --   -1.41586  -1.39635  -1.39339  -1.38897  -1.35606
 Alpha  occ. eigenvalues --   -1.35401  -1.35152  -1.34337  -1.33766  -1.33485
 Alpha  occ. eigenvalues --   -1.33451  -1.33421  -1.33310  -1.33190  -1.32850
 Alpha  occ. eigenvalues --   -1.32632  -1.32505  -1.32423  -1.32029  -1.31984
 Alpha  occ. eigenvalues --   -1.31846  -1.31438  -1.22065  -1.20771  -1.20463
 Alpha  occ. eigenvalues --   -1.20421  -1.17588  -1.11610  -1.08764  -1.06234
 Alpha  occ. eigenvalues --   -0.94193  -0.93322  -0.93025  -0.86816  -0.85951
 Alpha  occ. eigenvalues --   -0.84138  -0.82630  -0.82219  -0.82209  -0.80188
 Alpha  occ. eigenvalues --   -0.79308  -0.77541  -0.75933  -0.75669  -0.74086
 Alpha  occ. eigenvalues --   -0.73945  -0.73286  -0.72808  -0.72763  -0.71924
 Alpha  occ. eigenvalues --   -0.71276  -0.70934  -0.70794  -0.70373  -0.70208
 Alpha  occ. eigenvalues --   -0.70155  -0.69806  -0.69417  -0.68996  -0.68793
 Alpha  occ. eigenvalues --   -0.68426  -0.68114  -0.67449  -0.66988  -0.66870
 Alpha  occ. eigenvalues --   -0.66418  -0.66251  -0.65866  -0.65397  -0.64618
 Alpha  occ. eigenvalues --   -0.64181  -0.63643  -0.62705  -0.59885  -0.59543
 Alpha  occ. eigenvalues --   -0.59231  -0.58988  -0.58240  -0.57684  -0.57589
 Alpha  occ. eigenvalues --   -0.57379  -0.57209  -0.57093  -0.56938  -0.56746
 Alpha  occ. eigenvalues --   -0.56589  -0.56298  -0.56069  -0.55974  -0.55830
 Alpha  occ. eigenvalues --   -0.55674  -0.55505  -0.55287  -0.55118  -0.54909
 Alpha  occ. eigenvalues --   -0.54877  -0.54692  -0.54369  -0.54193  -0.53765
 Alpha  occ. eigenvalues --   -0.53611  -0.53396  -0.53309  -0.53124  -0.52916
 Alpha  occ. eigenvalues --   -0.52679  -0.52613  -0.52475  -0.52399  -0.52036
 Alpha  occ. eigenvalues --   -0.51871  -0.51743  -0.51602  -0.51336  -0.51116
 Alpha  occ. eigenvalues --   -0.51001  -0.50848  -0.50683  -0.50642  -0.50349
 Alpha  occ. eigenvalues --   -0.50227  -0.50121  -0.50047  -0.49908  -0.49786
 Alpha  occ. eigenvalues --   -0.49704  -0.49408  -0.49316  -0.48969  -0.48823
 Alpha  occ. eigenvalues --   -0.48580  -0.48542  -0.48042  -0.45679  -0.45442
 Alpha  occ. eigenvalues --   -0.44704  -0.44443  -0.43888  -0.39891  -0.38459
 Alpha  occ. eigenvalues --   -0.37765  -0.36669  -0.36145
 Alpha virt. eigenvalues --    0.01202   0.04226   0.05381   0.05802   0.06583
 Alpha virt. eigenvalues --    0.07012   0.08618   0.10302   0.12588   0.13867
 Alpha virt. eigenvalues --    0.14295   0.15916   0.16334   0.16507   0.17541

 Mulliken charges:
               1
     1  O   -0.504148
     2  C    0.856118
     3  N   -0.622759
     4  C    0.752817
     5  F   -0.271875
     6  F   -0.258978
     7  C    0.424122
     8  F   -0.272326
     9  O   -0.478110
    10  C    0.992479
    11  F   -0.238062
    12  F   -0.246962
    13  F   -0.246965
    14  C    0.813895
    15  F   -0.247051
    16  F   -0.249093
    17  F   -0.242576
    18  C    0.140774
    19  N   -0.619370
    20  C    0.743438
    21  F   -0.278970
    22  F   -0.243079
    23  C    0.442349
    24  F   -0.281685
    25  O   -0.502822
    26  C    0.982472
    27  F   -0.235208
    28  F   -0.238037
    29  F   -0.239680
    30  C    0.813744
    31  F   -0.254260
    32  F   -0.231139
    33  F   -0.249337
    34  C    0.850757
    35  O   -0.509341
    36  N   -0.667303
    37  C    0.760548
    38  F   -0.259014
    39  F   -0.256391
    40  C    0.438786
    41  F   -0.253203
    42  O   -0.505783
    43  C    0.996108
    44  F   -0.242626
    45  F   -0.239304
    46  F   -0.243963
    47  C    0.811548
    48  F   -0.246378
    49  F   -0.244174
    50  F   -0.259764
    51  H    0.185120
    52  H    0.174659
 Sum of Mulliken charges =   0.00000

 Dipole moment (field-independent basis, Debye):
    X=             -3.8965    Y=              1.1214    Z=             -0.4558  Tot=              4.0802
 Quadrupole moment (field-independent basis, Debye-Ang):
   XX=           -261.1761   YY=           -270.3893   ZZ=           -266.8919
   XY=             -3.5945   XZ=             -2.6185   YZ=              4.9382

 Normal termination of Gaussian 09 at Sun Mar  3 17:26:14 2024.
