 Gaussian 09, Revision D.01,
 Gaussian 09:  ES64L-G09RevD.01 24-Apr-2013

 ----------------------------------------------------------------------
 #p CAM-B3LYP/6-31G(d,p) SCRF=(PCM,Solvent=Generic,Read) NoSymm out=wfn
 ----------------------------------------------------------------------

 -----------------
 Title DIPEDA2_neu
 -----------------
 Symbolic Z-matrix:
 Charge =  0 Multiplicity = 1

                          Input orientation:
 ---------------------------------------------------------------------
 Center     Atomic      Atomic             Coordinates (Angstroms)
 Number     Number       Type             X           Y           Z
 ---------------------------------------------------------------------
      1          9           0        4.084966    2.840584   -2.573076
      2          6           0        3.640175    1.595627   -2.293155
      3          9           0        3.044157    1.117296   -3.403184
      4          6           0        4.748172    0.697375   -1.781553
      5          9           0        4.405507   -0.606349   -1.873281
      6          9           0        5.917041    0.841959   -2.432914
      7          6           0        4.797371    1.147483   -0.359047
      8          9           0        5.346573    2.411709   -0.351651
      9          6           0        5.610012    0.263991    0.544695
     10          9           0        5.452425    0.692601    1.830863
     11          6           0        7.082899    0.298207    0.140635
     12          8           0        7.437753   -0.711109   -0.686401
     13          8           0        7.914555    1.132092    0.463209
     14          9           0        5.121406   -1.006800    0.521305
     15          6           0        3.306894    1.297428   -0.037378
     16          9           0        3.187780    2.324113    0.854606
     17          6           0        2.564586    0.072091    0.529893
     18          9           0        3.152463   -0.333793    1.691258
     19          6           0        1.066356    0.340489    0.783289
     20          7           0        0.335920   -0.815804    1.029596
     21          6           0       -1.089623   -0.784563    1.310593
     22          6           0       -1.937286   -0.543648    0.048527
     23          7           0       -3.385602   -0.656296    0.360425
     24          6           0       -3.972932   -1.802343   -0.373993
     25          6           0       -4.330105   -1.523297   -1.837323
     26          6           0       -5.133322   -2.467554    0.376558
     27          6           0       -4.069225    0.661536    0.269771
     28          6           0       -5.570779    0.635365    0.591139
     29          6           0       -3.443423    1.683703    1.243272
     30          8           0        0.547410    1.452400    0.803124
     31          9           0        2.700991   -0.980952   -0.328777
     32          8           0        2.666876    1.733077   -1.263253
     33          1           0        8.393661   -0.570857   -0.865219
     34          1           0        0.799095   -1.716655    0.965503
     35          1           0       -1.340629   -1.752925    1.757747
     36          1           0       -1.273137   -0.007617    2.059976
     37          1           0       -1.624664   -1.275332   -0.709253
     38          1           0       -1.685976    0.419491   -0.412049
     39          1           0       -3.212409   -2.596953   -0.389234
     40          1           0       -4.623822   -2.452128   -2.339021
     41          1           0       -3.472911   -1.115507   -2.383446
     42          1           0       -5.161487   -0.821145   -1.939954
     43          1           0       -6.078399   -1.930713    0.283136
     44          1           0       -4.899944   -2.579316    1.441130
     45          1           0       -5.305200   -3.474344   -0.022609
     46          1           0       -3.956582    1.059512   -0.747306
     47          1           0       -5.766604    0.146369    1.551462
     48          1           0       -6.149115    0.137166   -0.189383
     49          1           0       -5.974344    1.652821    0.655115
     50          1           0       -3.984852    2.636227    1.208733
     51          1           0       -3.478938    1.318528    2.275985
     52          1           0       -2.403735    1.916762    0.997464
 ---------------------------------------------------------------------

 SCF Done:  E(RCAM-B3LYP) =  -2029.83433464     A.U. after   13 cycles

 Alpha  occ. eigenvalues --  -24.83673 -24.83363 -24.82736 -24.82649 -24.82465
 Alpha  occ. eigenvalues --  -24.82004 -24.82001 -24.81996 -24.81694 -24.81118
 Alpha  occ. eigenvalues --  -19.31371 -19.30249 -19.25525 -19.21986 -14.45201
 Alpha  occ. eigenvalues --  -14.39241 -10.52360 -10.49084 -10.48886 -10.47627
 Alpha  occ. eigenvalues --  -10.46836 -10.44434 -10.42511 -10.39947 -10.29762
 Alpha  occ. eigenvalues --  -10.28588 -10.28510 -10.28035 -10.24430 -10.24252
 Alpha  occ. eigenvalues --  -10.23921 -10.23829  -1.40545  -1.38489  -1.37917
 Alpha  occ. eigenvalues --   -1.37096  -1.35330  -1.33230  -1.32704  -1.31609
 Alpha  occ. eigenvalues --   -1.31151  -1.30783  -1.22198  -1.19527  -1.14000
 Alpha  occ. eigenvalues --   -1.12362  -1.01691  -0.99164  -0.97405  -0.90226
 Alpha  occ. eigenvalues --   -0.88356  -0.86280  -0.85457  -0.83081  -0.79740
 Alpha  occ. eigenvalues --   -0.77518  -0.76253  -0.76089  -0.75317  -0.73513
 Alpha  occ. eigenvalues --   -0.72238  -0.70634  -0.69912  -0.69083  -0.68456
 Alpha  occ. eigenvalues --   -0.67534  -0.67328  -0.66613  -0.66066  -0.65678
 Alpha  occ. eigenvalues --   -0.65429  -0.64910  -0.63472  -0.62487  -0.62072
 Alpha  occ. eigenvalues --   -0.61410  -0.58535  -0.57616  -0.56417  -0.56249
 Alpha  occ. eigenvalues --   -0.55844  -0.55442  -0.55329  -0.54565  -0.54202
 Alpha  occ. eigenvalues --   -0.53715  -0.53618  -0.53505  -0.53424  -0.52825
 Alpha  occ. eigenvalues --   -0.52674  -0.52136  -0.52077  -0.52019  -0.51519
 Alpha  occ. eigenvalues --   -0.50971  -0.50508  -0.49928  -0.49688  -0.49335
 Alpha  occ. eigenvalues --   -0.49186  -0.49113  -0.48569  -0.48326  -0.48181
 Alpha  occ. eigenvalues --   -0.47102  -0.46173  -0.45673  -0.45261  -0.45068
 Alpha  occ. eigenvalues --   -0.44671  -0.43999  -0.43203  -0.42909  -0.42470
 Alpha  occ. eigenvalues --   -0.42234  -0.41196  -0.40905  -0.39760  -0.39495
 Alpha  occ. eigenvalues --   -0.37998  -0.37740  -0.37169  -0.34478  -0.32913
 Alpha  occ. eigenvalues --   -0.26691
 Alpha virt. eigenvalues --   -0.00132   0.02521   0.04184   0.09174   0.11179
 Alpha virt. eigenvalues --    0.12150   0.12593   0.12785   0.13242   0.14661
 Alpha virt. eigenvalues --    0.15615   0.16144   0.16847   0.17850   0.18709

 Mulliken charges:
               1
     1  F   -0.247427
     2  C    0.757899
     3  F   -0.249522
     4  C    0.549628
     5  F   -0.250083
     6  F   -0.257316
     7  C    0.136524
     8  F   -0.287403
     9  C    0.617272
    10  F   -0.274044
    11  C    0.517487
    12  O   -0.471135
    13  O   -0.437599
    14  F   -0.270918
    15  C    0.510257
    16  F   -0.268954
    17  C    0.540859
    18  F   -0.273475
    19  C    0.585332
    20  N   -0.558561
    21  C   -0.032814
    22  C   -0.049032
    23  N   -0.440048
    24  C    0.064504
    25  C   -0.319390
    26  C   -0.308898
    27  C    0.088162
    28  C   -0.325289
    29  C   -0.329712
    30  O   -0.495915
    31  F   -0.282854
    32  O   -0.503360
    33  H    0.361797
    34  H    0.288354
    35  H    0.117526
    36  H    0.138904
    37  H    0.094022
    38  H    0.121949
    39  H    0.093797
    40  H    0.103204
    41  H    0.104887
    42  H    0.108205
    43  H    0.102832
    44  H    0.106382
    45  H    0.094379
    46  H    0.078140
    47  H    0.113516
    48  H    0.102486
    49  H    0.104421
    50  H    0.101843
    51  H    0.107324
    52  H    0.121859
 Sum of Mulliken charges =   0.00000

 Dipole moment (field-independent basis, Debye):
    X=             -0.4585    Y=             -4.9452    Z=             -1.3322  Tot=              5.1420
 Quadrupole moment (field-independent basis, Debye-Ang):
   XX=           -164.1516   YY=           -185.8653   ZZ=           -182.3163
   XY=            -15.1803   XZ=             -7.6826   YZ=             -2.5940

 Normal termination of Gaussian 09 at Mon Feb  3 21:59:27 2025.
