 Gaussian 09, Revision D.01,
 Gaussian 09:  ES64L-G09RevD.01 24-Apr-2013

 ----------------------------------------------------------------------
 #p CAM-B3LYP/6-31G(d,p) SCRF=(PCM,Solvent=Generic,Read) NoSymm out=wfn
 ----------------------------------------------------------------------

 -------------------
 Title A891418172_p1
 -------------------
 Symbolic Z-matrix:
 Charge =  1 Multiplicity = 2

                          Input orientation:
 ---------------------------------------------------------------------
 Center     Atomic      Atomic             Coordinates (Angstroms)
 Number     Number       Type             X           Y           Z
 ---------------------------------------------------------------------
      1          6           0       -2.733710    2.165656    0.576727
      2          6           0       -2.956607    1.052474   -0.437946
      3          7           0       -2.104082   -0.104471   -0.174006
      4          6           0       -2.558090   -1.057430    0.707682
      5          8           0       -3.625962   -0.993436    1.311135
      6          7           0       -1.719141   -2.100115    0.930444
      7          6           0       -0.424018   -2.138039    0.530932
      8          8           0        0.339330   -2.944268    1.052540
      9          7           0       -0.046195   -1.216430   -0.403947
     10          6           0        1.319068   -1.239589   -0.903350
     11          9           0        1.263959   -0.915269   -2.233272
     12          9           0        1.782639   -2.523796   -0.936667
     13          6           0        2.376055   -0.333420   -0.216745
     14          9           0        3.560681   -0.433481   -0.899983
     15          8           0        2.012828    1.051219   -0.147746
     16          6           0        2.557118    1.796767   -1.207837
     17          9           0        2.389628    1.181309   -2.387715
     18          9           0        1.944860    2.995993   -1.246354
     19          9           0        3.868560    2.000486   -0.982199
     20          6           0        2.619190   -0.833454    1.199862
     21          9           0        3.026021   -2.116212    1.251254
     22          9           0        1.509987   -0.706338    1.968157
     23          9           0        3.583523   -0.092806    1.807186
     24          6           0       -0.818860   -0.112970   -0.686620
     25          8           0       -0.377232    0.840592   -1.327081
     26          1           0       -2.953128    1.823249    1.593213
     27          1           0       -3.384408    3.017036    0.354867
     28          1           0       -1.696181    2.514814    0.559857
     29          1           0       -2.753649    1.430572   -1.446391
     30          1           0       -4.007485    0.742080   -0.413572
     31          1           0       -1.994698   -2.750723    1.652871
 ---------------------------------------------------------------------

 SCF Done:  E(UCAM-B3LYP) =  -1709.49920803     A.U. after   95 cycles

 Alpha  occ. eigenvalues --  -24.86680 -24.86671 -24.86483 -24.86036 -24.85702
 Alpha  occ. eigenvalues --  -24.85691 -24.85438 -24.84851 -24.84748 -19.36264
 Alpha  occ. eigenvalues --  -19.35713 -19.35093 -19.28827 -14.67774 -14.59637
 Alpha  occ. eigenvalues --  -14.56280 -10.61729 -10.57843 -10.57512 -10.55455
 Alpha  occ. eigenvalues --  -10.53872 -10.52313 -10.51124 -10.40904 -10.33467
 Alpha  occ. eigenvalues --   -1.45090  -1.44231  -1.42607  -1.38821  -1.35735
 Alpha  occ. eigenvalues --   -1.35463  -1.34953  -1.34627  -1.34271  -1.32596
 Alpha  occ. eigenvalues --   -1.27808  -1.24611  -1.23377  -1.20472  -1.15686
 Alpha  occ. eigenvalues --   -1.12880  -0.97715  -0.96122  -0.91491  -0.88427
 Alpha  occ. eigenvalues --   -0.86241  -0.83269  -0.82701  -0.81786  -0.78772
 Alpha  occ. eigenvalues --   -0.76422  -0.75078  -0.74047  -0.73076  -0.71887
 Alpha  occ. eigenvalues --   -0.71723  -0.70874  -0.70369  -0.69884  -0.68921
 Alpha  occ. eigenvalues --   -0.68094  -0.66962  -0.64965  -0.63570  -0.62870
 Alpha  occ. eigenvalues --   -0.62392  -0.62051  -0.60216  -0.59811  -0.59205
 Alpha  occ. eigenvalues --   -0.58657  -0.58444  -0.58078  -0.57617  -0.57228
 Alpha  occ. eigenvalues --   -0.56747  -0.56224  -0.55549  -0.55139  -0.54812
 Alpha  occ. eigenvalues --   -0.54053  -0.53931  -0.53337  -0.52752  -0.52423
 Alpha  occ. eigenvalues --   -0.51984  -0.51730  -0.51660  -0.51190  -0.50036
 Alpha  occ. eigenvalues --   -0.49607  -0.49310  -0.48651  -0.47676  -0.45115
 Alpha  occ. eigenvalues --   -0.43813  -0.42362
 Alpha virt. eigenvalues --   -0.08027  -0.05926   0.02582   0.02779   0.04594
 Alpha virt. eigenvalues --    0.07315   0.09248   0.09712   0.11769   0.13102
 Alpha virt. eigenvalues --    0.13380   0.14699   0.15061   0.16523   0.17045

  Beta  occ. eigenvalues --  -24.86680 -24.86671 -24.86483 -24.86028 -24.85702
  Beta  occ. eigenvalues --  -24.85691 -24.85438 -24.84851 -24.84748 -19.35703
  Beta  occ. eigenvalues --  -19.35559 -19.34377 -19.28842 -14.66482 -14.59681
  Beta  occ. eigenvalues --  -14.56324 -10.61729 -10.57843 -10.57511 -10.55692
  Beta  occ. eigenvalues --  -10.54091 -10.52314 -10.51125 -10.40872 -10.33299
  Beta  occ. eigenvalues --   -1.45089  -1.44231  -1.42601  -1.38820  -1.35730
  Beta  occ. eigenvalues --   -1.35463  -1.34940  -1.34626  -1.34269  -1.31501
  Beta  occ. eigenvalues --   -1.26713  -1.24299  -1.23344  -1.18215  -1.15380
  Beta  occ. eigenvalues --   -1.12638  -0.97601  -0.95597  -0.91100  -0.88300
  Beta  occ. eigenvalues --   -0.85864  -0.83264  -0.82358  -0.81710  -0.78543
  Beta  occ. eigenvalues --   -0.76292  -0.74899  -0.73762  -0.72947  -0.71715
  Beta  occ. eigenvalues --   -0.70942  -0.70337  -0.70234  -0.69636  -0.68457
  Beta  occ. eigenvalues --   -0.67853  -0.66274  -0.64323  -0.62848  -0.62699
  Beta  occ. eigenvalues --   -0.60949  -0.60534  -0.60053  -0.59493  -0.59141
  Beta  occ. eigenvalues --   -0.58625  -0.58321  -0.57978  -0.57443  -0.57136
  Beta  occ. eigenvalues --   -0.56553  -0.56074  -0.55102  -0.54828  -0.54052
  Beta  occ. eigenvalues --   -0.53916  -0.53735  -0.53159  -0.52635  -0.51932
  Beta  occ. eigenvalues --   -0.51775  -0.51672  -0.51619  -0.50836  -0.49434
  Beta  occ. eigenvalues --   -0.48652  -0.47259  -0.47102  -0.44316  -0.43175
  Beta  occ. eigenvalues --   -0.42004
  Beta virt. eigenvalues --   -0.29096  -0.06640  -0.04516   0.02600   0.03034
  Beta virt. eigenvalues --    0.04989   0.07573   0.09507   0.09971   0.11999
  Beta virt. eigenvalues --    0.13224   0.13550   0.14927   0.15323   0.16631

 Mulliken charges and spin densities:
               1          2
     1  C   -0.339079   0.089172
     2  C   -0.123436   0.012424
     3  N   -0.405587   0.590238
     4  C    0.835870  -0.125222
     5  O   -0.364709   0.285932
     6  N   -0.580316  -0.013458
     7  C    0.822672  -0.000747
     8  O   -0.450591  -0.005025
     9  N   -0.617217  -0.012088
    10  C    0.758288  -0.000729
    11  F   -0.252198   0.001725
    12  F   -0.233753   0.000109
    13  C    0.435640  -0.000448
    14  F   -0.259248   0.000053
    15  O   -0.533999   0.002512
    16  C    1.030548  -0.000444
    17  F   -0.246504   0.000007
    18  F   -0.243325   0.000038
    19  F   -0.244087   0.000146
    20  C    0.820526   0.000018
    21  F   -0.229741   0.000026
    22  F   -0.253577   0.000004
    23  F   -0.247256   0.000014
    24  C    0.901398  -0.135495
    25  O   -0.363642   0.278139
    26  H    0.172064  -0.002836
    27  H    0.197367   0.004450
    28  H    0.172023  -0.002651
    29  H    0.234231   0.017344
    30  H    0.235387   0.016855
    31  H    0.372249  -0.000062
 Sum of Mulliken charges =   1.00000   1.00000

 Dipole moment (field-independent basis, Debye):
    X=            -11.4440    Y=              0.3142    Z=             -0.0448  Tot=             11.4484
 Quadrupole moment (field-independent basis, Debye-Ang):
   XX=           -105.0236   YY=           -121.9707   ZZ=           -129.0169
   XY=             -1.3918   XZ=              0.2808   YZ=             -0.5180

 Normal termination of Gaussian 09 at Sun Mar  3 18:07:36 2024.
