 Gaussian 09, Revision D.01,
 Gaussian 09:  ES64L-G09RevD.01 24-Apr-2013

 ----------------------------------------------------------------------
 #p CAM-B3LYP/6-31G(d,p) SCRF=(PCM,Solvent=Generic,Read) NoSymm out=wfn
 ----------------------------------------------------------------------

 ------------------
 Title A891418172_0
 ------------------
 Symbolic Z-matrix:
 Charge =  0 Multiplicity = 1

                          Input orientation:
 ---------------------------------------------------------------------
 Center     Atomic      Atomic             Coordinates (Angstroms)
 Number     Number       Type             X           Y           Z
 ---------------------------------------------------------------------
      1          6           0       -2.733710    2.165656    0.576727
      2          6           0       -2.956607    1.052474   -0.437946
      3          7           0       -2.104082   -0.104471   -0.174006
      4          6           0       -2.558090   -1.057430    0.707682
      5          8           0       -3.625962   -0.993436    1.311135
      6          7           0       -1.719141   -2.100115    0.930444
      7          6           0       -0.424018   -2.138039    0.530932
      8          8           0        0.339330   -2.944268    1.052540
      9          7           0       -0.046195   -1.216430   -0.403947
     10          6           0        1.319068   -1.239589   -0.903350
     11          9           0        1.263959   -0.915269   -2.233272
     12          9           0        1.782639   -2.523796   -0.936667
     13          6           0        2.376055   -0.333420   -0.216745
     14          9           0        3.560681   -0.433481   -0.899983
     15          8           0        2.012828    1.051219   -0.147746
     16          6           0        2.557118    1.796767   -1.207837
     17          9           0        2.389628    1.181309   -2.387715
     18          9           0        1.944860    2.995993   -1.246354
     19          9           0        3.868560    2.000486   -0.982199
     20          6           0        2.619190   -0.833454    1.199862
     21          9           0        3.026021   -2.116212    1.251254
     22          9           0        1.509987   -0.706338    1.968157
     23          9           0        3.583523   -0.092806    1.807186
     24          6           0       -0.818860   -0.112970   -0.686620
     25          8           0       -0.377232    0.840592   -1.327081
     26          1           0       -2.953128    1.823249    1.593213
     27          1           0       -3.384408    3.017036    0.354867
     28          1           0       -1.696181    2.514814    0.559857
     29          1           0       -2.753649    1.430572   -1.446391
     30          1           0       -4.007485    0.742080   -0.413572
     31          1           0       -1.994698   -2.750723    1.652871
 ---------------------------------------------------------------------

 SCF Done:  E(RCAM-B3LYP) =  -1709.82398833     A.U. after   13 cycles

 Alpha  occ. eigenvalues --  -24.83769 -24.83527 -24.83165 -24.82944 -24.82863
 Alpha  occ. eigenvalues --  -24.82768 -24.82496 -24.82471 -24.81717 -19.32325
 Alpha  occ. eigenvalues --  -19.23653 -19.22897 -19.22583 -14.52628 -14.49851
 Alpha  occ. eigenvalues --  -14.49091 -10.59031 -10.55087 -10.53006 -10.48902
 Alpha  occ. eigenvalues --  -10.45521 -10.45092 -10.43994 -10.31415 -10.25822
 Alpha  occ. eigenvalues --   -1.42417  -1.41580  -1.38673  -1.35875  -1.32897
 Alpha  occ. eigenvalues --   -1.32773  -1.32223  -1.31912  -1.30949  -1.22212
 Alpha  occ. eigenvalues --   -1.20092  -1.17006  -1.16584  -1.09127  -1.06695
 Alpha  occ. eigenvalues --   -1.04637  -0.93580  -0.86901  -0.84273  -0.80550
 Alpha  occ. eigenvalues --   -0.79952  -0.78720  -0.76538  -0.74051  -0.73235
 Alpha  occ. eigenvalues --   -0.71999  -0.70937  -0.70377  -0.69133  -0.68733
 Alpha  occ. eigenvalues --   -0.67562  -0.67357  -0.66230  -0.64645  -0.63137
 Alpha  occ. eigenvalues --   -0.61421  -0.59766  -0.57199  -0.56966  -0.56193
 Alpha  occ. eigenvalues --   -0.56055  -0.55859  -0.55404  -0.54690  -0.54549
 Alpha  occ. eigenvalues --   -0.54124  -0.53646  -0.53319  -0.52998  -0.52677
 Alpha  occ. eigenvalues --   -0.52260  -0.51886  -0.51235  -0.51097  -0.50940
 Alpha  occ. eigenvalues --   -0.50426  -0.50275  -0.49637  -0.49361  -0.48846
 Alpha  occ. eigenvalues --   -0.48599  -0.47734  -0.46404  -0.44981  -0.43194
 Alpha  occ. eigenvalues --   -0.42313  -0.39648  -0.39191  -0.37977  -0.36870
 Alpha  occ. eigenvalues --   -0.35790  -0.35248
 Alpha virt. eigenvalues --    0.01683   0.02284   0.06555   0.07367   0.12247
 Alpha virt. eigenvalues --    0.12953   0.15238   0.16087   0.17715   0.18814
 Alpha virt. eigenvalues --    0.19644   0.20004   0.21104   0.21933   0.22603

 Mulliken charges:
               1
     1  C   -0.329340
     2  C   -0.063584
     3  N   -0.554330
     4  C    0.783617
     5  O   -0.518291
     6  N   -0.586926
     7  C    0.790238
     8  O   -0.505158
     9  N   -0.615864
    10  C    0.755937
    11  F   -0.262563
    12  F   -0.249434
    13  C    0.431470
    14  F   -0.272040
    15  O   -0.526792
    16  C    1.028183
    17  F   -0.248608
    18  F   -0.247238
    19  F   -0.252083
    20  C    0.815174
    21  F   -0.235476
    22  F   -0.251166
    23  F   -0.255321
    24  C    0.847954
    25  O   -0.506571
    26  H    0.127560
    27  H    0.128232
    28  H    0.129373
    29  H    0.153560
    30  H    0.154322
    31  H    0.335164
 Sum of Mulliken charges =   0.00000

 Dipole moment (field-independent basis, Debye):
    X=             -2.6950    Y=              0.4362    Z=             -0.1438  Tot=              2.7339
 Quadrupole moment (field-independent basis, Debye-Ang):
   XX=           -139.6195   YY=           -136.7244   ZZ=           -137.5838
   XY=              0.8808   XZ=              3.9707   YZ=              2.4692

 Normal termination of Gaussian 09 at Sun Mar  3 18:04:39 2024.
