 Gaussian 09, Revision D.01,
 Gaussian 09:  ES64L-G09RevD.01 24-Apr-2013

 ----------------------------------------------------------------------
 #p CAM-B3LYP/6-31G(d,p) SCRF=(PCM,Solvent=Generic,Read) NoSymm out=wfn
 ----------------------------------------------------------------------

 ----------------
 Title EHOPA2_neu
 ----------------
 Symbolic Z-matrix:
 Charge =  0 Multiplicity = 1

                          Input orientation:
 ---------------------------------------------------------------------
 Center     Atomic      Atomic             Coordinates (Angstroms)
 Number     Number       Type             X           Y           Z
 ---------------------------------------------------------------------
      1          6           0       -6.478010    1.548360    2.080716
      2          6           0       -5.267938    2.235584    1.466956
      3          6           0       -4.191235    1.258649    0.984460
      4          6           0       -4.665246    0.356196   -0.160061
      5          6           0       -3.540030   -0.435225   -0.871910
      6          6           0       -4.110212   -1.296105   -2.021299
      7          6           0       -4.756247   -0.490752   -3.140311
      8          6           0       -2.759816   -1.350796    0.091255
      9          8           0       -1.881032   -0.565892    0.896865
     10          6           0       -1.143087   -1.366408    1.817094
     11          6           0       -0.291389   -0.464235    2.703493
     12          6           0        0.624744    0.475052    1.920343
     13          7           0        1.563621   -0.223955    1.063514
     14          6           0        2.704531   -0.833001    1.557675
     15          6           0        3.557097   -1.568142    0.509212
     16          9           0        4.510258   -2.364400    1.068862
     17          9           0        2.754774   -2.428646   -0.202326
     18          6           0        4.217030   -0.602124   -0.499519
     19          9           0        3.223040    0.076606   -1.133259
     20          8           0        4.881984   -1.378758   -1.520870
     21          6           0        6.281918   -1.219051   -1.319277
     22          9           0        6.730639   -0.560507   -2.408318
     23          9           0        6.873484   -2.427199   -1.315611
     24          6           0        6.507913   -0.422565   -0.046105
     25          9           0        6.609097   -1.276513    1.007725
     26          9           0        7.623747    0.322923   -0.040243
     27          6           0        5.237367    0.364489    0.081629
     28          6           0        5.268456    1.732507   -0.584968
     29          9           0        6.130157    2.515768    0.141389
     30          6           0        5.659591    1.790664   -2.060256
     31          8           0        4.695085    1.380260   -2.906348
     32          8           0        6.743519    2.135882   -2.504566
     33          9           0        4.042859    2.318433   -0.393432
     34          9           0        4.975374    0.597484    1.403619
     35          8           0        3.005222   -0.788023    2.749079
     36          1           0       -7.025973    0.962239    1.337073
     37          1           0       -7.167509    2.294935    2.487817
     38          1           0       -6.179936    0.882127    2.896426
     39          1           0       -5.592922    2.873253    0.636622
     40          1           0       -4.823508    2.898098    2.219319
     41          1           0       -3.325221    1.842857    0.650745
     42          1           0       -3.867010    0.649386    1.835303
     43          1           0       -5.173463    0.989981   -0.895559
     44          1           0       -5.413695   -0.350374    0.218981
     45          1           0       -2.837139    0.293827   -1.297314
     46          1           0       -4.839349   -2.014495   -1.626961
     47          1           0       -3.296823   -1.884614   -2.464214
     48          1           0       -5.006719   -1.149888   -3.978039
     49          1           0       -4.077524    0.283765   -3.510754
     50          1           0       -5.684464   -0.014697   -2.812175
     51          1           0       -2.150735   -2.065008   -0.475376
     52          1           0       -3.451513   -1.913092    0.729977
     53          1           0       -0.510931   -2.070396    1.264128
     54          1           0       -1.835101   -1.939923    2.444534
     55          1           0       -0.955812    0.155851    3.317759
     56          1           0        0.295562   -1.087661    3.387427
     57          1           0        1.195601    1.092372    2.623293
     58          1           0        0.045182    1.150700    1.282764
     59          1           0        1.265608   -0.413571    0.110360
     60          1           0        5.076128    1.487768   -3.806909
 ---------------------------------------------------------------------

 SCF Done:  E(RCAM-B3LYP) =  -2167.58970123     A.U. after   13 cycles

 Alpha  occ. eigenvalues --  -24.83628 -24.83376 -24.83141 -24.83071 -24.82830
 Alpha  occ. eigenvalues --  -24.82710 -24.82097 -24.81942 -24.81565 -24.81554
 Alpha  occ. eigenvalues --  -19.32093 -19.30435 -19.25540 -19.22172 -19.21531
 Alpha  occ. eigenvalues --  -14.45222 -10.53162 -10.49475 -10.49154 -10.47476
 Alpha  occ. eigenvalues --  -10.47395 -10.44643 -10.43024 -10.39723 -10.30560
 Alpha  occ. eigenvalues --  -10.30202 -10.29958 -10.26093 -10.26026 -10.25400
 Alpha  occ. eigenvalues --  -10.24653 -10.24570 -10.24414 -10.23980 -10.23972
 Alpha  occ. eigenvalues --   -1.40816  -1.38662  -1.37797  -1.37145  -1.35500
 Alpha  occ. eigenvalues --   -1.34466  -1.33093  -1.31942  -1.30611  -1.30181
 Alpha  occ. eigenvalues --   -1.22515  -1.20462  -1.13587  -1.12523  -1.11086
 Alpha  occ. eigenvalues --   -1.01706  -0.97939  -0.90733  -0.90058  -0.88199
 Alpha  occ. eigenvalues --   -0.86717  -0.86040  -0.82923  -0.81037  -0.79157
 Alpha  occ. eigenvalues --   -0.77915  -0.76965  -0.75694  -0.74458  -0.71969
 Alpha  occ. eigenvalues --   -0.71234  -0.70675  -0.70122  -0.69547  -0.69015
 Alpha  occ. eigenvalues --   -0.68176  -0.67184  -0.66597  -0.65707  -0.65652
 Alpha  occ. eigenvalues --   -0.65410  -0.64378  -0.64331  -0.63918  -0.63545
 Alpha  occ. eigenvalues --   -0.62721  -0.61862  -0.58691  -0.57989  -0.57306
 Alpha  occ. eigenvalues --   -0.56933  -0.56569  -0.56186  -0.55696  -0.55413
 Alpha  occ. eigenvalues --   -0.55054  -0.54673  -0.54190  -0.53675  -0.53598
 Alpha  occ. eigenvalues --   -0.53055  -0.52846  -0.52522  -0.52359  -0.52235
 Alpha  occ. eigenvalues --   -0.52001  -0.51850  -0.51641  -0.50894  -0.50411
 Alpha  occ. eigenvalues --   -0.50365  -0.50201  -0.49790  -0.49621  -0.49097
 Alpha  occ. eigenvalues --   -0.48725  -0.48417  -0.48086  -0.47758  -0.46910
 Alpha  occ. eigenvalues --   -0.46371  -0.46058  -0.45836  -0.44521  -0.44041
 Alpha  occ. eigenvalues --   -0.43955  -0.43026  -0.42495  -0.42220  -0.41453
 Alpha  occ. eigenvalues --   -0.41390  -0.41280  -0.40577  -0.39350  -0.38698
 Alpha  occ. eigenvalues --   -0.38568  -0.38020  -0.37284  -0.36164  -0.35758
 Alpha  occ. eigenvalues --   -0.34443  -0.32634  -0.31918
 Alpha virt. eigenvalues --   -0.00771   0.02611   0.04350   0.07590   0.09623
 Alpha virt. eigenvalues --    0.10924   0.11638   0.13383   0.13871   0.14545
 Alpha virt. eigenvalues --    0.14615   0.14695   0.16420   0.17084   0.17367

 Mulliken charges:
               1
     1  C   -0.317013
     2  C   -0.182841
     3  C   -0.160063
     4  C   -0.176534
     5  C   -0.085704
     6  C   -0.181387
     7  C   -0.322396
     8  C    0.088082
     9  O   -0.517435
    10  C    0.070572
    11  C   -0.211359
    12  C   -0.052871
    13  N   -0.533782
    14  C    0.541513
    15  C    0.569183
    16  F   -0.265214
    17  F   -0.281461
    18  C    0.456683
    19  F   -0.271225
    20  O   -0.494270
    21  C    0.745884
    22  F   -0.241673
    23  F   -0.240200
    24  C    0.537229
    25  F   -0.256637
    26  F   -0.244274
    27  C    0.181685
    28  C    0.633627
    29  F   -0.270736
    30  C    0.507709
    31  O   -0.472317
    32  O   -0.441977
    33  F   -0.274095
    34  F   -0.281763
    35  O   -0.508748
    36  H    0.103801
    37  H    0.099672
    38  H    0.100079
    39  H    0.088337
    40  H    0.089077
    41  H    0.087056
    42  H    0.095482
    43  H    0.091940
    44  H    0.088956
    45  H    0.090849
    46  H    0.095091
    47  H    0.091936
    48  H    0.102686
    49  H    0.104205
    50  H    0.109744
    51  H    0.081444
    52  H    0.086267
    53  H    0.085696
    54  H    0.094391
    55  H    0.115461
    56  H    0.127527
    57  H    0.138422
    58  H    0.136125
    59  H    0.287288
    60  H    0.362273
 Sum of Mulliken charges =   0.00000

 Dipole moment (field-independent basis, Debye):
    X=             -4.1654    Y=             -0.2267    Z=             -3.2916  Tot=              5.3138
 Quadrupole moment (field-independent basis, Debye-Ang):
   XX=           -223.4792   YY=           -203.0252   ZZ=           -197.2776
   XY=              2.3410   XZ=            -12.9824   YZ=             -0.5830

 Normal termination of Gaussian 09 at Mon Feb  3 21:54:52 2025.
