 Gaussian 09, Revision D.01,
 Gaussian 09:  ES64L-G09RevD.01 24-Apr-2013

 ----------------------------------------------------------------------
 #p CAM-B3LYP/6-31G(d,p) SCRF=(PCM,Solvent=Generic,Read) NoSymm out=wfn
 ----------------------------------------------------------------------

 -------------------
 Title A904173282_p1
 -------------------
 Symbolic Z-matrix:
 Charge =  1 Multiplicity = 2

                          Input orientation:
 ---------------------------------------------------------------------
 Center     Atomic      Atomic             Coordinates (Angstroms)
 Number     Number       Type             X           Y           Z
 ---------------------------------------------------------------------
      1          8           0       -4.008089    0.911027    0.120785
      2          6           0       -2.886331    0.459964   -0.107880
      3          7           0       -2.601283   -0.879246   -0.022694
      4          6           0       -3.672623   -1.781126    0.321533
      5          9           0       -3.683954   -1.930444    1.674256
      6          6           0       -1.351269   -1.407719   -0.247786
      7          8           0       -1.193568   -2.621191   -0.376496
      8          7           0       -0.316432   -0.502312   -0.358278
      9          6           0        1.013948   -1.085217   -0.539527
     10          9           0        1.114836   -2.117333    0.355197
     11          9           0        1.070784   -1.651190   -1.776518
     12          6           0        2.272957   -0.203985   -0.316102
     13          9           0        2.471594    0.607225   -1.395619
     14          8           0        2.052077    0.639024    0.826571
     15          6           0        3.197894    1.365756    1.191773
     16          9           0        4.017697    0.564643    1.891842
     17          9           0        2.814663    2.384042    1.984905
     18          9           0        3.837977    1.861786    0.123906
     19          6           0        3.456870   -1.179285   -0.225431
     20          9           0        4.639594   -0.515563   -0.226829
     21          9           0        3.430935   -1.905458    0.915346
     22          9           0        3.504327   -2.043923   -1.261540
     23          6           0       -0.571276    0.789770   -0.734532
     24          8           0        0.273747    1.504050   -1.265149
     25          7           0       -1.839493    1.261322   -0.491816
     26          6           0       -2.133806    2.634956   -0.817887
     27          9           0       -2.531569    2.693389   -2.117313
     28          1           0       -4.648104   -1.391413    0.016261
     29          1           0       -3.536769   -2.770007   -0.125293
     30          1           0       -2.941650    3.033985   -0.197534
     31          1           0       -1.253683    3.274472   -0.702132
 ---------------------------------------------------------------------

 SCF Done:  E(UCAM-B3LYP) =  -1907.88475207     A.U. after   63 cycles

 Alpha  occ. eigenvalues --  -24.88318 -24.87969 -24.86307 -24.86181 -24.86081
 Alpha  occ. eigenvalues --  -24.85836 -24.85657 -24.85401 -24.85283 -24.82824
 Alpha  occ. eigenvalues --  -24.82277 -19.39137 -19.38637 -19.36657 -19.35484
 Alpha  occ. eigenvalues --  -14.61500 -14.60994 -14.59879 -10.62242 -10.58921
 Alpha  occ. eigenvalues --  -10.58305 -10.56242 -10.55729 -10.54955 -10.53199
 Alpha  occ. eigenvalues --  -10.45693 -10.45048  -1.45781  -1.44789  -1.43542
 Alpha  occ. eigenvalues --   -1.39175  -1.37245  -1.35946  -1.35803  -1.35625
 Alpha  occ. eigenvalues --   -1.35164  -1.35037  -1.34558  -1.32623  -1.30027
 Alpha  occ. eigenvalues --   -1.28589  -1.24019  -1.20596  -1.16754  -1.15578
 Alpha  occ. eigenvalues --   -0.97889  -0.92765  -0.91892  -0.91780  -0.85760
 Alpha  occ. eigenvalues --   -0.84060  -0.83858  -0.83372  -0.79292  -0.76791
 Alpha  occ. eigenvalues --   -0.75380  -0.73889  -0.73779  -0.72600  -0.71718
 Alpha  occ. eigenvalues --   -0.71332  -0.70710  -0.70558  -0.69378  -0.69008
 Alpha  occ. eigenvalues --   -0.67784  -0.67429  -0.66421  -0.66200  -0.64775
 Alpha  occ. eigenvalues --   -0.64598  -0.63096  -0.62678  -0.62071  -0.61726
 Alpha  occ. eigenvalues --   -0.60942  -0.60200  -0.59812  -0.59274  -0.58995
 Alpha  occ. eigenvalues --   -0.58703  -0.58041  -0.57372  -0.56827  -0.56013
 Alpha  occ. eigenvalues --   -0.55871  -0.55045  -0.54788  -0.54454  -0.53623
 Alpha  occ. eigenvalues --   -0.53282  -0.52824  -0.52512  -0.52236  -0.51573
 Alpha  occ. eigenvalues --   -0.51226  -0.50793  -0.49773  -0.49365  -0.48933
 Alpha  occ. eigenvalues --   -0.48510  -0.48013  -0.47759  -0.46942  -0.46759
 Alpha virt. eigenvalues --   -0.09405  -0.07764   0.00380   0.02428   0.04136
 Alpha virt. eigenvalues --    0.08767   0.10378   0.11180   0.12528   0.13201
 Alpha virt. eigenvalues --    0.13653   0.14089   0.14547   0.15409   0.15858

  Beta  occ. eigenvalues --  -24.88279 -24.87962 -24.86262 -24.86181 -24.86081
  Beta  occ. eigenvalues --  -24.85836 -24.85656 -24.85398 -24.85282 -24.82795
  Beta  occ. eigenvalues --  -24.82268 -19.38072 -19.37665 -19.36651 -19.34893
  Beta  occ. eigenvalues --  -14.61457 -14.60860 -14.59814 -10.62242 -10.58924
  Beta  occ. eigenvalues --  -10.58304 -10.56342 -10.55825 -10.55014 -10.53197
  Beta  occ. eigenvalues --  -10.45666 -10.45031  -1.45774  -1.44766  -1.43519
  Beta  occ. eigenvalues --   -1.39094  -1.37200  -1.35943  -1.35654  -1.35623
  Beta  occ. eigenvalues --   -1.35109  -1.35033  -1.34554  -1.31898  -1.28314
  Beta  occ. eigenvalues --   -1.27467  -1.23996  -1.19362  -1.16252  -1.15081
  Beta  occ. eigenvalues --   -0.97837  -0.92689  -0.91489  -0.91239  -0.85548
  Beta  occ. eigenvalues --   -0.83873  -0.83273  -0.82914  -0.79194  -0.76749
  Beta  occ. eigenvalues --   -0.75327  -0.73855  -0.73748  -0.72554  -0.71678
  Beta  occ. eigenvalues --   -0.71248  -0.70563  -0.70524  -0.69302  -0.68975
  Beta  occ. eigenvalues --   -0.67455  -0.66478  -0.66142  -0.65488  -0.64511
  Beta  occ. eigenvalues --   -0.64120  -0.62967  -0.62268  -0.61771  -0.61340
  Beta  occ. eigenvalues --   -0.60655  -0.59955  -0.59749  -0.59165  -0.58863
  Beta  occ. eigenvalues --   -0.58349  -0.57870  -0.57103  -0.56748  -0.55964
  Beta  occ. eigenvalues --   -0.55740  -0.54724  -0.54438  -0.53585  -0.52918
  Beta  occ. eigenvalues --   -0.52510  -0.52181  -0.52131  -0.51619  -0.51510
  Beta  occ. eigenvalues --   -0.49604  -0.48632  -0.48544  -0.47776  -0.47710
  Beta  occ. eigenvalues --   -0.47488  -0.46647  -0.44223  -0.44041
  Beta virt. eigenvalues --   -0.31817  -0.09076  -0.07545   0.00453   0.02476
  Beta virt. eigenvalues --    0.04153   0.08912   0.10477   0.11329   0.12601
  Beta virt. eigenvalues --    0.13364   0.13803   0.14162   0.14659   0.15521

 Mulliken charges and spin densities:
               1          2
     1  O   -0.325653   0.401414
     2  C    0.953215  -0.057811
     3  N   -0.592951   0.064988
     4  C    0.230400   0.007835
     5  F   -0.270252   0.008552
     6  C    0.943984  -0.059300
     7  O   -0.322289   0.363792
     8  N   -0.652358   0.021481
     9  C    0.800601  -0.002611
    10  F   -0.253794   0.009254
    11  F   -0.233490   0.001897
    12  C    0.407638   0.000062
    13  F   -0.243624   0.010616
    14  O   -0.519050   0.002018
    15  C    1.001845  -0.000022
    16  F   -0.237927   0.000185
    17  F   -0.235764  -0.000009
    18  F   -0.233173   0.000052
    19  C    0.826516   0.000275
    20  F   -0.250564   0.000075
    21  F   -0.241000   0.000654
    22  F   -0.236311   0.000095
    23  C    0.927424  -0.036757
    24  O   -0.378404   0.221008
    25  N   -0.598368   0.032699
    26  C    0.234748   0.004322
    27  F   -0.276864   0.002787
    28  H    0.195719   0.002234
    29  H    0.197368  -0.000876
    30  H    0.190168  -0.000268
    31  H    0.192209   0.001361
 Sum of Mulliken charges =   1.00000   1.00000

 Dipole moment (field-independent basis, Debye):
    X=             -9.3548    Y=              0.4891    Z=             -0.9548  Tot=              9.4162
 Quadrupole moment (field-independent basis, Debye-Ang):
   XX=           -110.0593   YY=           -126.8729   ZZ=           -144.1776
   XY=              4.2776   XZ=              4.4677   YZ=              5.1634

 Normal termination of Gaussian 09 at Sun Mar  3 18:00:17 2024.
