 Gaussian 09, Revision D.01,
 Gaussian 09:  ES64L-G09RevD.01 24-Apr-2013

 ----------------------------------------------------------------------
 #p CAM-B3LYP/6-31G(d,p) SCRF=(PCM,Solvent=Generic,Read) NoSymm out=wfn
 ----------------------------------------------------------------------

 ------------------
 Title A904173282_0
 ------------------
 Symbolic Z-matrix:
 Charge =  0 Multiplicity = 1

                          Input orientation:
 ---------------------------------------------------------------------
 Center     Atomic      Atomic             Coordinates (Angstroms)
 Number     Number       Type             X           Y           Z
 ---------------------------------------------------------------------
      1          8           0       -4.008089    0.911027    0.120785
      2          6           0       -2.886331    0.459964   -0.107880
      3          7           0       -2.601283   -0.879246   -0.022694
      4          6           0       -3.672623   -1.781126    0.321533
      5          9           0       -3.683954   -1.930444    1.674256
      6          6           0       -1.351269   -1.407719   -0.247786
      7          8           0       -1.193568   -2.621191   -0.376496
      8          7           0       -0.316432   -0.502312   -0.358278
      9          6           0        1.013948   -1.085217   -0.539527
     10          9           0        1.114836   -2.117333    0.355197
     11          9           0        1.070784   -1.651190   -1.776518
     12          6           0        2.272957   -0.203985   -0.316102
     13          9           0        2.471594    0.607225   -1.395619
     14          8           0        2.052077    0.639024    0.826571
     15          6           0        3.197894    1.365756    1.191773
     16          9           0        4.017697    0.564643    1.891842
     17          9           0        2.814663    2.384042    1.984905
     18          9           0        3.837977    1.861786    0.123906
     19          6           0        3.456870   -1.179285   -0.225431
     20          9           0        4.639594   -0.515563   -0.226829
     21          9           0        3.430935   -1.905458    0.915346
     22          9           0        3.504327   -2.043923   -1.261540
     23          6           0       -0.571276    0.789770   -0.734532
     24          8           0        0.273747    1.504050   -1.265149
     25          7           0       -1.839493    1.261322   -0.491816
     26          6           0       -2.133806    2.634956   -0.817887
     27          9           0       -2.531569    2.693389   -2.117313
     28          1           0       -4.648104   -1.391413    0.016261
     29          1           0       -3.536769   -2.770007   -0.125293
     30          1           0       -2.941650    3.033985   -0.197534
     31          1           0       -1.253683    3.274472   -0.702132
 ---------------------------------------------------------------------

 SCF Done:  E(RCAM-B3LYP) =  -1908.22505113     A.U. after   13 cycles

 Alpha  occ. eigenvalues --  -24.83854 -24.83600 -24.83554 -24.83450 -24.83038
 Alpha  occ. eigenvalues --  -24.82920 -24.82880 -24.82836 -24.82117 -24.77343
 Alpha  occ. eigenvalues --  -24.77269 -19.33278 -19.24425 -19.24397 -19.24026
 Alpha  occ. eigenvalues --  -14.53015 -14.50989 -14.50963 -10.59710 -10.55486
 Alpha  occ. eigenvalues --  -10.53532 -10.49250 -10.46289 -10.46281 -10.45420
 Alpha  occ. eigenvalues --  -10.39263 -10.39162  -1.43317  -1.41798  -1.38984
 Alpha  occ. eigenvalues --   -1.35222  -1.33593  -1.33368  -1.32834  -1.32258
 Alpha  occ. eigenvalues --   -1.31807  -1.30117  -1.29986  -1.22916  -1.20675
 Alpha  occ. eigenvalues --   -1.18044  -1.17682  -1.09903  -1.07637  -1.06469
 Alpha  occ. eigenvalues --   -0.93530  -0.86332  -0.83838  -0.83574  -0.81903
 Alpha  occ. eigenvalues --   -0.78697  -0.76440  -0.75382  -0.74689  -0.73045
 Alpha  occ. eigenvalues --   -0.71379  -0.70527  -0.69920  -0.68856  -0.68158
 Alpha  occ. eigenvalues --   -0.67421  -0.66242  -0.65401  -0.63836  -0.63614
 Alpha  occ. eigenvalues --   -0.60670  -0.60222  -0.60159  -0.58508  -0.58067
 Alpha  occ. eigenvalues --   -0.57529  -0.57378  -0.56978  -0.56617  -0.56076
 Alpha  occ. eigenvalues --   -0.55774  -0.55474  -0.54571  -0.54236  -0.53717
 Alpha  occ. eigenvalues --   -0.53395  -0.53118  -0.52972  -0.52452  -0.52101
 Alpha  occ. eigenvalues --   -0.51750  -0.51106  -0.50646  -0.50472  -0.50309
 Alpha  occ. eigenvalues --   -0.49910  -0.49190  -0.48649  -0.46802  -0.46205
 Alpha  occ. eigenvalues --   -0.46033  -0.44429  -0.42664  -0.42556  -0.40581
 Alpha  occ. eigenvalues --   -0.39972  -0.38865  -0.38493  -0.38038  -0.36175
 Alpha virt. eigenvalues --    0.00169   0.01077   0.06640   0.07459   0.09722
 Alpha virt. eigenvalues --    0.15266   0.16463   0.16913   0.17315   0.18304
 Alpha virt. eigenvalues --    0.18687   0.19184   0.20125   0.20244   0.20919

 Mulliken charges:
               1
     1  O   -0.509754
     2  C    0.849126
     3  N   -0.598081
     4  C    0.252152
     5  F   -0.301106
     6  C    0.850625
     7  O   -0.489417
     8  N   -0.651459
     9  C    0.800916
    10  F   -0.270401
    11  F   -0.254352
    12  C    0.414900
    13  F   -0.254473
    14  O   -0.518492
    15  C    0.995484
    16  F   -0.243952
    17  F   -0.240664
    18  F   -0.237578
    19  C    0.816222
    20  F   -0.259079
    21  F   -0.246671
    22  F   -0.241849
    23  C    0.851273
    24  O   -0.494681
    25  N   -0.597968
    26  C    0.255547
    27  F   -0.300479
    28  H    0.155313
    29  H    0.157934
    30  H    0.157388
    31  H    0.153575
 Sum of Mulliken charges =   0.00000

 Dipole moment (field-independent basis, Debye):
    X=             -1.1743    Y=              1.2600    Z=              0.5543  Tot=              1.8093
 Quadrupole moment (field-independent basis, Debye-Ang):
   XX=           -147.9616   YY=           -146.2037   ZZ=           -149.4463
   XY=              4.2171   XZ=              4.7198   YZ=              6.7057

 Normal termination of Gaussian 09 at Sun Mar  3 17:57:30 2024.
