 Gaussian 09, Revision D.01,
 Gaussian 09:  ES64L-G09RevD.01 24-Apr-2013

 ----------------------------------------------------------------------
 #p CAM-B3LYP/6-31G(d,p) SCRF=(PCM,Solvent=Generic,Read) NoSymm out=wfn
 ----------------------------------------------------------------------

 ------------------
 Title A584720882_0
 ------------------
 Symbolic Z-matrix:
 Charge =  0 Multiplicity = 1

                          Input orientation:
 ---------------------------------------------------------------------
 Center     Atomic      Atomic             Coordinates (Angstroms)
 Number     Number       Type             X           Y           Z
 ---------------------------------------------------------------------
      1          6           0        0.164936   -4.618126   -0.218540
      2          6           0       -0.633397   -3.565605   -0.004724
      3          7           0       -0.325530   -2.201599   -0.107460
      4          6           0       -1.373652   -1.297323    0.075509
      5          8           0       -2.547321   -1.659844    0.111080
      6          7           0       -1.030309    0.021058    0.194570
      7          6           0       -2.008900    1.041828    0.574702
      8          9           0       -1.296188    1.981396    1.272809
      9          9           0       -2.447171    1.681123   -0.542208
     10          6           0       -3.227339    0.670424    1.471523
     11          9           0       -2.751848   -0.123505    2.498369
     12          8           0       -4.317650   -0.089666    0.940880
     13          6           0       -4.832102    0.360198   -0.283661
     14          9           0       -5.082881    1.674673   -0.233076
     15          9           0       -5.984656   -0.287428   -0.532916
     16          9           0       -3.967080    0.102016   -1.277971
     17          6           0       -3.708655    1.983363    2.116984
     18          9           0       -3.891785    2.982470    1.229856
     19          9           0       -4.889411    1.800773    2.761299
     20          9           0       -2.835603    2.438745    3.047782
     21          6           0        0.102294    0.494213   -0.423589
     22          8           0        0.270160    1.685607   -0.669526
     23          7           0        1.054290   -0.428351   -0.759951
     24          6           0        2.346805    0.039372   -1.245099
     25          9           0        2.843762   -0.940579   -2.070733
     26          9           0        2.164479    1.081021   -2.100678
     27          6           0        3.442932    0.372001   -0.187463
     28          9           0        3.296123   -0.494851    0.875615
     29          8           0        4.782454    0.089188   -0.628641
     30          6           0        5.292953    1.006441   -1.560906
     31          9           0        5.554440    2.173153   -0.953281
     32          9           0        6.437578    0.515345   -2.067673
     33          9           0        4.424946    1.200505   -2.560951
     34          6           0        3.223292    1.771784    0.384582
     35          9           0        4.226087    2.099978    1.238309
     36          9           0        3.178485    2.729600   -0.560554
     37          9           0        2.081994    1.834800    1.107451
     38          6           0        0.967798   -1.742472   -0.354813
     39          8           0        1.983147   -2.420319   -0.207986
     40          1           0        1.205673   -4.548820   -0.513116
     41          1           0       -0.226562   -5.625563   -0.103824
     42          1           0       -1.666585   -3.787026    0.268019
 ---------------------------------------------------------------------

 SCF Done:  E(RCAM-B3LYP) =  -2833.85192468     A.U. after   13 cycles

 Alpha  occ. eigenvalues --  -24.84195 -24.83830 -24.83812 -24.83743 -24.83721
 Alpha  occ. eigenvalues --  -24.83531 -24.83466 -24.83461 -24.83380 -24.83314
 Alpha  occ. eigenvalues --  -24.83287 -24.83198 -24.83033 -24.82955 -24.82748
 Alpha  occ. eigenvalues --  -24.82739 -24.82569 -24.82424 -19.33304 -19.32614
 Alpha  occ. eigenvalues --  -19.25268 -19.25258 -19.24670 -14.53732 -14.53578
 Alpha  occ. eigenvalues --  -14.52504 -10.59830 -10.59530 -10.55490 -10.55140
 Alpha  occ. eigenvalues --  -10.54190 -10.53690 -10.49772 -10.49344 -10.47200
 Alpha  occ. eigenvalues --  -10.46934 -10.46810 -10.32611 -10.27344  -1.43660
 Alpha  occ. eigenvalues --   -1.43249  -1.41974  -1.41587  -1.39490  -1.39078
 Alpha  occ. eigenvalues --   -1.35531  -1.35530  -1.34156  -1.33842  -1.33640
 Alpha  occ. eigenvalues --   -1.33381  -1.32978  -1.32530  -1.32311  -1.32215
 Alpha  occ. eigenvalues --   -1.31697  -1.31520  -1.24080  -1.20661  -1.20457
 Alpha  occ. eigenvalues --   -1.18979  -1.18563  -1.10779  -1.09051  -1.08144
 Alpha  occ. eigenvalues --   -0.93664  -0.92997  -0.88537  -0.85879  -0.84678
 Alpha  occ. eigenvalues --   -0.82544  -0.82033  -0.80341  -0.80225  -0.77814
 Alpha  occ. eigenvalues --   -0.75488  -0.75285  -0.74308  -0.73484  -0.72395
 Alpha  occ. eigenvalues --   -0.71617  -0.71186  -0.70997  -0.70483  -0.70194
 Alpha  occ. eigenvalues --   -0.69663  -0.69140  -0.68919  -0.68278  -0.68135
 Alpha  occ. eigenvalues --   -0.67738  -0.66978  -0.66466  -0.64931  -0.64304
 Alpha  occ. eigenvalues --   -0.64199  -0.62724  -0.59680  -0.59155  -0.59083
 Alpha  occ. eigenvalues --   -0.57991  -0.57716  -0.57647  -0.57370  -0.57293
 Alpha  occ. eigenvalues --   -0.57003  -0.56579  -0.56268  -0.56155  -0.55592
 Alpha  occ. eigenvalues --   -0.55519  -0.55455  -0.55425  -0.55089  -0.54726
 Alpha  occ. eigenvalues --   -0.54457  -0.54114  -0.53908  -0.53745  -0.53693
 Alpha  occ. eigenvalues --   -0.53113  -0.52899  -0.52650  -0.52051  -0.51781
 Alpha  occ. eigenvalues --   -0.51703  -0.51591  -0.51281  -0.51122  -0.50769
 Alpha  occ. eigenvalues --   -0.50622  -0.50599  -0.50142  -0.50134  -0.49808
 Alpha  occ. eigenvalues --   -0.49245  -0.49033  -0.48960  -0.48596  -0.48443
 Alpha  occ. eigenvalues --   -0.48103  -0.47861  -0.46486  -0.44206  -0.43285
 Alpha  occ. eigenvalues --   -0.43022  -0.40990  -0.40088  -0.39139  -0.38850
 Alpha  occ. eigenvalues --   -0.36808  -0.32122
 Alpha virt. eigenvalues --   -0.01282  -0.00410   0.03031   0.05739   0.06073
 Alpha virt. eigenvalues --    0.06584   0.07849   0.11423   0.14418   0.15291
 Alpha virt. eigenvalues --    0.15463   0.17423   0.18081   0.18504   0.18833

 Mulliken charges:
               1
     1  C   -0.264432
     2  C    0.111273
     3  N   -0.608133
     4  C    0.842090
     5  O   -0.485892
     6  N   -0.663976
     7  C    0.803069
     8  F   -0.270493
     9  F   -0.250805
    10  C    0.412528
    11  F   -0.280293
    12  O   -0.483670
    13  C    0.989515
    14  F   -0.242332
    15  F   -0.238820
    16  F   -0.243012
    17  C    0.809511
    18  F   -0.239882
    19  F   -0.253648
    20  F   -0.248799
    21  C    0.855857
    22  O   -0.485353
    23  N   -0.638717
    24  C    0.764772
    25  F   -0.274581
    26  F   -0.245481
    27  C    0.435637
    28  F   -0.269904
    29  O   -0.495533
    30  C    0.978108
    31  F   -0.239731
    32  F   -0.236631
    33  F   -0.235074
    34  C    0.818380
    35  F   -0.258472
    36  F   -0.242818
    37  F   -0.243014
    38  C    0.843759
    39  O   -0.473661
    40  H    0.146271
    41  H    0.132235
    42  H    0.170155
 Sum of Mulliken charges =   0.00000

 Dipole moment (field-independent basis, Debye):
    X=             -0.3517    Y=             -2.6411    Z=             -0.4773  Tot=              2.7068
 Quadrupole moment (field-independent basis, Debye-Ang):
   XX=           -216.6055   YY=           -204.9765   ZZ=           -206.6623
   XY=              4.0240   XZ=              1.2944   YZ=              0.6292

 Normal termination of Gaussian 09 at Sun Mar  3 18:08:16 2024.
