 Gaussian 09, Revision D.01,
 Gaussian 09:  ES64L-G09RevD.01 24-Apr-2013

 ----------------------------------------------------------------------
 #p CAM-B3LYP/6-31G(d,p) SCRF=(PCM,Solvent=Generic,Read) NoSymm out=wfn
 ----------------------------------------------------------------------

 -------------------
 Title A584720882_p1
 -------------------
 Symbolic Z-matrix:
 Charge =  1 Multiplicity = 2

                          Input orientation:
 ---------------------------------------------------------------------
 Center     Atomic      Atomic             Coordinates (Angstroms)
 Number     Number       Type             X           Y           Z
 ---------------------------------------------------------------------
      1          6           0        0.164936   -4.618126   -0.218540
      2          6           0       -0.633397   -3.565605   -0.004724
      3          7           0       -0.325530   -2.201599   -0.107460
      4          6           0       -1.373652   -1.297323    0.075509
      5          8           0       -2.547321   -1.659844    0.111080
      6          7           0       -1.030309    0.021058    0.194570
      7          6           0       -2.008900    1.041828    0.574702
      8          9           0       -1.296188    1.981396    1.272809
      9          9           0       -2.447171    1.681123   -0.542208
     10          6           0       -3.227339    0.670424    1.471523
     11          9           0       -2.751848   -0.123505    2.498369
     12          8           0       -4.317650   -0.089666    0.940880
     13          6           0       -4.832102    0.360198   -0.283661
     14          9           0       -5.082881    1.674673   -0.233076
     15          9           0       -5.984656   -0.287428   -0.532916
     16          9           0       -3.967080    0.102016   -1.277971
     17          6           0       -3.708655    1.983363    2.116984
     18          9           0       -3.891785    2.982470    1.229856
     19          9           0       -4.889411    1.800773    2.761299
     20          9           0       -2.835603    2.438745    3.047782
     21          6           0        0.102294    0.494213   -0.423589
     22          8           0        0.270160    1.685607   -0.669526
     23          7           0        1.054290   -0.428351   -0.759951
     24          6           0        2.346805    0.039372   -1.245099
     25          9           0        2.843762   -0.940579   -2.070733
     26          9           0        2.164479    1.081021   -2.100678
     27          6           0        3.442932    0.372001   -0.187463
     28          9           0        3.296123   -0.494851    0.875615
     29          8           0        4.782454    0.089188   -0.628641
     30          6           0        5.292953    1.006441   -1.560906
     31          9           0        5.554440    2.173153   -0.953281
     32          9           0        6.437578    0.515345   -2.067673
     33          9           0        4.424946    1.200505   -2.560951
     34          6           0        3.223292    1.771784    0.384582
     35          9           0        4.226087    2.099978    1.238309
     36          9           0        3.178485    2.729600   -0.560554
     37          9           0        2.081994    1.834800    1.107451
     38          6           0        0.967798   -1.742472   -0.354813
     39          8           0        1.983147   -2.420319   -0.207986
     40          1           0        1.205673   -4.548820   -0.513116
     41          1           0       -0.226562   -5.625563   -0.103824
     42          1           0       -1.666585   -3.787026    0.268019
 ---------------------------------------------------------------------

 SCF Done:  E(UCAM-B3LYP) =  -2833.56402152     A.U. after   20 cycles

 Alpha  occ. eigenvalues --  -24.86457 -24.86365 -24.86216 -24.86095 -24.86090
 Alpha  occ. eigenvalues --  -24.86074 -24.85992 -24.85794 -24.85784 -24.85652
 Alpha  occ. eigenvalues --  -24.85456 -24.85429 -24.85346 -24.85306 -24.84844
 Alpha  occ. eigenvalues --  -24.84647 -24.84507 -24.84402 -19.35515 -19.35173
 Alpha  occ. eigenvalues --  -19.33047 -19.32813 -19.29308 -14.64795 -14.59028
 Alpha  occ. eigenvalues --  -14.58951 -10.61744 -10.61610 -10.57663 -10.57629
 Alpha  occ. eigenvalues --  -10.57210 -10.57147 -10.54236 -10.54141 -10.52441
 Alpha  occ. eigenvalues --  -10.52041 -10.51765 -10.48131 -10.43318  -1.45439
 Alpha  occ. eigenvalues --   -1.45415  -1.44028  -1.43637  -1.42331  -1.42238
 Alpha  occ. eigenvalues --   -1.38264  -1.38188  -1.36031  -1.35910  -1.35826
 Alpha  occ. eigenvalues --   -1.35508  -1.34998  -1.34902  -1.34759  -1.34174
 Alpha  occ. eigenvalues --   -1.34041  -1.33603  -1.31171  -1.25948  -1.24534
 Alpha  occ. eigenvalues --   -1.22923  -1.22838  -1.18715  -1.15528  -1.14501
 Alpha  occ. eigenvalues --   -1.02133  -0.96494  -0.95822  -0.90807  -0.90584
 Alpha  occ. eigenvalues --   -0.88558  -0.84863  -0.84489  -0.83929  -0.82877
 Alpha  occ. eigenvalues --   -0.81149  -0.79031  -0.77920  -0.76512  -0.75877
 Alpha  occ. eigenvalues --   -0.74810  -0.73887  -0.73448  -0.73168  -0.72769
 Alpha  occ. eigenvalues --   -0.72351  -0.71979  -0.71758  -0.71326  -0.70869
 Alpha  occ. eigenvalues --   -0.70600  -0.70401  -0.69988  -0.69222  -0.68942
 Alpha  occ. eigenvalues --   -0.67878  -0.66890  -0.66650  -0.65266  -0.63921
 Alpha  occ. eigenvalues --   -0.62581  -0.61787  -0.61681  -0.61299  -0.60601
 Alpha  occ. eigenvalues --   -0.60332  -0.60049  -0.59487  -0.59314  -0.58980
 Alpha  occ. eigenvalues --   -0.58850  -0.58634  -0.58254  -0.58055  -0.57857
 Alpha  occ. eigenvalues --   -0.57616  -0.57500  -0.57201  -0.56963  -0.56699
 Alpha  occ. eigenvalues --   -0.56570  -0.56190  -0.55809  -0.55516  -0.55128
 Alpha  occ. eigenvalues --   -0.55004  -0.54403  -0.54101  -0.53907  -0.53552
 Alpha  occ. eigenvalues --   -0.53333  -0.53168  -0.52800  -0.52535  -0.52379
 Alpha  occ. eigenvalues --   -0.52328  -0.51779  -0.51424  -0.51391  -0.51273
 Alpha  occ. eigenvalues --   -0.50940  -0.50826  -0.50387  -0.50331  -0.48081
 Alpha  occ. eigenvalues --   -0.46973  -0.46334  -0.46225  -0.45362  -0.44990
 Alpha  occ. eigenvalues --   -0.43707  -0.42020
 Alpha virt. eigenvalues --   -0.10239  -0.07773  -0.04067   0.00848   0.02507
 Alpha virt. eigenvalues --    0.03152   0.03850   0.05594   0.06773   0.08731
 Alpha virt. eigenvalues --    0.11942   0.12516   0.12694   0.14136   0.14785

  Beta  occ. eigenvalues --  -24.86456 -24.86366 -24.86215 -24.86095 -24.86090
  Beta  occ. eigenvalues --  -24.86073 -24.85992 -24.85794 -24.85782 -24.85651
  Beta  occ. eigenvalues --  -24.85456 -24.85429 -24.85346 -24.85306 -24.84844
  Beta  occ. eigenvalues --  -24.84647 -24.84507 -24.84402 -19.35514 -19.35173
  Beta  occ. eigenvalues --  -19.32905 -19.32656 -19.29282 -14.64259 -14.59020
  Beta  occ. eigenvalues --  -14.58940 -10.61744 -10.61610 -10.57663 -10.57630
  Beta  occ. eigenvalues --  -10.57211 -10.57147 -10.54298 -10.54211 -10.52441
  Beta  occ. eigenvalues --  -10.52041 -10.51774 -10.47860 -10.42515  -1.45439
  Beta  occ. eigenvalues --   -1.45414  -1.44027  -1.43637  -1.42330  -1.42236
  Beta  occ. eigenvalues --   -1.38262  -1.38186  -1.36030  -1.35910  -1.35825
  Beta  occ. eigenvalues --   -1.35507  -1.34997  -1.34901  -1.34757  -1.34173
  Beta  occ. eigenvalues --   -1.34041  -1.33602  -1.30804  -1.25754  -1.24374
  Beta  occ. eigenvalues --   -1.22916  -1.22836  -1.17972  -1.15346  -1.14424
  Beta  occ. eigenvalues --   -0.99927  -0.96321  -0.95814  -0.90631  -0.90368
  Beta  occ. eigenvalues --   -0.88061  -0.84835  -0.84475  -0.83891  -0.82786
  Beta  occ. eigenvalues --   -0.80905  -0.78792  -0.77913  -0.76429  -0.75862
  Beta  occ. eigenvalues --   -0.74771  -0.73823  -0.73422  -0.73116  -0.72738
  Beta  occ. eigenvalues --   -0.72283  -0.71929  -0.71610  -0.70982  -0.70867
  Beta  occ. eigenvalues --   -0.70428  -0.70357  -0.69877  -0.69055  -0.68410
  Beta  occ. eigenvalues --   -0.67789  -0.66869  -0.66538  -0.64614  -0.63746
  Beta  occ. eigenvalues --   -0.61861  -0.61709  -0.61373  -0.61085  -0.60480
  Beta  occ. eigenvalues --   -0.60253  -0.59977  -0.59455  -0.59293  -0.58949
  Beta  occ. eigenvalues --   -0.58792  -0.58611  -0.58234  -0.57903  -0.57674
  Beta  occ. eigenvalues --   -0.57580  -0.57380  -0.57177  -0.56845  -0.56682
  Beta  occ. eigenvalues --   -0.56536  -0.56176  -0.55683  -0.55382  -0.55088
  Beta  occ. eigenvalues --   -0.54920  -0.54391  -0.54083  -0.53894  -0.53459
  Beta  occ. eigenvalues --   -0.53166  -0.52930  -0.52585  -0.52505  -0.52369
  Beta  occ. eigenvalues --   -0.51935  -0.51420  -0.51395  -0.51256  -0.50953
  Beta  occ. eigenvalues --   -0.50829  -0.50561  -0.50385  -0.49589  -0.47804
  Beta  occ. eigenvalues --   -0.46841  -0.46076  -0.45173  -0.44891  -0.43438
  Beta  occ. eigenvalues --   -0.41941
  Beta virt. eigenvalues --   -0.25486  -0.07672  -0.06595  -0.02596   0.01799
  Beta virt. eigenvalues --    0.02570   0.03303   0.04036   0.05838   0.07146
  Beta virt. eigenvalues --    0.09085   0.12006   0.12818   0.13145   0.14256

 Mulliken charges and spin densities:
               1          2
     1  C   -0.101583   0.564397
     2  C    0.250999   0.206350
     3  N   -0.581203   0.220936
     4  C    0.885915  -0.036617
     5  O   -0.426739   0.063056
     6  N   -0.669560   0.004382
     7  C    0.808869  -0.000487
     8  F   -0.260518  -0.000077
     9  F   -0.240359   0.000304
    10  C    0.408243   0.000096
    11  F   -0.278494   0.000158
    12  O   -0.485030   0.000071
    13  C    0.993033  -0.000012
    14  F   -0.237474   0.000023
    15  F   -0.234196   0.000005
    16  F   -0.245828   0.000186
    17  C    0.816376  -0.000007
    18  F   -0.236444   0.000002
    19  F   -0.248889   0.000005
    20  F   -0.245718   0.000000
    21  C    0.875845  -0.005060
    22  O   -0.445659   0.010088
    23  N   -0.643476   0.004892
    24  C    0.766818  -0.000338
    25  F   -0.268398   0.000223
    26  F   -0.234678  -0.000053
    27  C    0.438171   0.000312
    28  F   -0.270930   0.000170
    29  O   -0.490875   0.000204
    30  C    0.981458  -0.000007
    31  F   -0.236325   0.000003
    32  F   -0.233158  -0.000001
    33  F   -0.234696   0.000005
    34  C    0.822181  -0.000015
    35  F   -0.252780   0.000011
    36  F   -0.238622   0.000007
    37  F   -0.243918   0.000071
    38  C    0.881957  -0.034855
    39  O   -0.420915   0.056998
    40  H    0.252115  -0.022065
    41  H    0.251370  -0.025067
    42  H    0.273115  -0.008294
 Sum of Mulliken charges =   1.00000   1.00000

 Dipole moment (field-independent basis, Debye):
    X=             -1.1699    Y=            -17.0580    Z=             -1.1383  Tot=             17.1359
 Quadrupole moment (field-independent basis, Debye-Ang):
   XX=           -202.1646   YY=           -136.6132   ZZ=           -201.5053
   XY=              5.8597   XZ=             -0.5095   YZ=              2.7165

 Normal termination of Gaussian 09 at Sun Mar  3 18:09:00 2024.
