 Gaussian 09, Revision D.01,
 Gaussian 09:  ES64L-G09RevD.01 24-Apr-2013

 ----------------------------------------------------------------------
 #p CAM-B3LYP/6-31G(d,p) SCRF=(PCM,Solvent=Generic,Read) NoSymm out=wfn
 ----------------------------------------------------------------------

 --------------------
 Title A1386248941_p1
 --------------------
 Symbolic Z-matrix:
 Charge =  1 Multiplicity = 2

                          Input orientation:
 ---------------------------------------------------------------------
 Center     Atomic      Atomic             Coordinates (Angstroms)
 Number     Number       Type             X           Y           Z
 ---------------------------------------------------------------------
      1          6           0       -3.302149   -3.805725   -1.548862
      2          8           0       -2.549161   -2.918412   -0.734000
      3          6           0       -2.235098   -1.714100   -1.430360
      4          7           0       -1.470337   -0.883039   -0.528069
      5          6           0       -2.148845    0.035207    0.241641
      6          8           0       -3.372528    0.167186    0.181700
      7          7           0       -1.366940    0.808055    1.072006
      8          6           0       -2.004554    1.891512    1.785447
      9          8           0       -1.961923    3.040045    0.941121
     10          6           0       -2.548460    4.168883    1.573332
     11          6           0       -0.007917    0.644421    1.218332
     12          8           0        0.656149    1.370961    1.957346
     13          7           0        0.566768   -0.373616    0.494299
     14          6           0        2.008496   -0.535560    0.589818
     15          9           0        2.341356   -0.488534    1.922330
     16          9           0        2.358096   -1.804912    0.244828
     17          6           0        2.895587    0.502974   -0.157536
     18          9           0        2.291889    1.739236   -0.062132
     19          8           0        4.169430    0.742711    0.466638
     20          6           0        5.107404   -0.287783    0.302686
     21          9           0        4.587445   -1.468094    0.658477
     22          9           0        6.170964   -0.029753    1.085186
     23          9           0        5.515616   -0.334899   -0.974112
     24          6           0        2.944991    0.173449   -1.648680
     25          9           0        3.378398   -1.076720   -1.901360
     26          9           0        3.784105    1.022366   -2.296200
     27          9           0        1.735026    0.326818   -2.233705
     28          6           0       -0.105742   -1.044171   -0.494819
     29          8           0        0.488973   -1.724714   -1.330204
     30          1           0       -4.251391   -3.346249   -1.840921
     31          1           0       -2.730421   -4.088632   -2.438002
     32          1           0       -3.515183   -4.708118   -0.969589
     33          1           0       -3.159180   -1.211327   -1.737070
     34          1           0       -1.652353   -1.948271   -2.328393
     35          1           0       -3.045934    1.642839    2.019110
     36          1           0       -1.477445    2.099618    2.723533
     37          1           0       -2.001882    4.424332    2.486279
     38          1           0       -3.600359    3.975512    1.804836
     39          1           0       -2.492890    5.016502    0.885070
 ---------------------------------------------------------------------

 SCF Done:  E(UCAM-B3LYP) =  -1938.44660289     A.U. after   30 cycles

 Alpha  occ. eigenvalues --  -24.85567 -24.85400 -24.85196 -24.84970 -24.84963
 Alpha  occ. eigenvalues --  -24.84939 -24.84797 -24.84191 -24.84137 -19.37314
 Alpha  occ. eigenvalues --  -19.37129 -19.34813 -19.29423 -19.27984 -19.27976
 Alpha  occ. eigenvalues --  -14.56499 -14.55690 -14.55675 -10.61076 -10.57102
 Alpha  occ. eigenvalues --  -10.55635 -10.51089 -10.50154 -10.49875 -10.49855
 Alpha  occ. eigenvalues --  -10.43595 -10.43556 -10.36973 -10.36896  -1.44901
 Alpha  occ. eigenvalues --   -1.43499  -1.40950  -1.37405  -1.35414  -1.34941
 Alpha  occ. eigenvalues --   -1.34366  -1.33797  -1.33305  -1.27485  -1.24761
 Alpha  occ. eigenvalues --   -1.23843  -1.22178  -1.21964  -1.21189  -1.13629
 Alpha  occ. eigenvalues --   -1.11678  -1.10734  -0.95342  -0.91845  -0.89571
 Alpha  occ. eigenvalues --   -0.87572  -0.84083  -0.83758  -0.83009  -0.81199
 Alpha  occ. eigenvalues --   -0.79434  -0.78869  -0.77752  -0.75256  -0.74216
 Alpha  occ. eigenvalues --   -0.72925  -0.71754  -0.71333  -0.70393  -0.69616
 Alpha  occ. eigenvalues --   -0.68175  -0.68027  -0.67170  -0.66063  -0.65766
 Alpha  occ. eigenvalues --   -0.65043  -0.64706  -0.63945  -0.62819  -0.60572
 Alpha  occ. eigenvalues --   -0.60370  -0.59083  -0.58979  -0.58780  -0.58110
 Alpha  occ. eigenvalues --   -0.58010  -0.57704  -0.57174  -0.56917  -0.56463
 Alpha  occ. eigenvalues --   -0.56378  -0.56154  -0.55849  -0.55407  -0.55119
 Alpha  occ. eigenvalues --   -0.54288  -0.54023  -0.53872  -0.53613  -0.53182
 Alpha  occ. eigenvalues --   -0.52628  -0.52233  -0.51533  -0.51336  -0.50751
 Alpha  occ. eigenvalues --   -0.50119  -0.49540  -0.49063  -0.48972  -0.46156
 Alpha  occ. eigenvalues --   -0.45285  -0.45080  -0.44589  -0.43524  -0.42668
 Alpha  occ. eigenvalues --   -0.42364  -0.41846  -0.40221
 Alpha virt. eigenvalues --   -0.03483  -0.02826   0.03079   0.04438   0.05785
 Alpha virt. eigenvalues --    0.08581   0.10500   0.11876   0.12068   0.12797
 Alpha virt. eigenvalues --    0.13144   0.13747   0.14523   0.14947   0.15337

  Beta  occ. eigenvalues --  -24.85567 -24.85400 -24.85196 -24.84967 -24.84963
  Beta  occ. eigenvalues --  -24.84939 -24.84797 -24.84191 -24.84136 -19.36332
  Beta  occ. eigenvalues --  -19.36162 -19.34813 -19.29237 -19.27933 -19.27924
  Beta  occ. eigenvalues --  -14.56494 -14.55689 -14.55675 -10.61076 -10.57102
  Beta  occ. eigenvalues --  -10.55636 -10.51089 -10.50170 -10.49880 -10.49861
  Beta  occ. eigenvalues --  -10.43586 -10.43546 -10.36978 -10.36902  -1.44901
  Beta  occ. eigenvalues --   -1.43499  -1.40947  -1.37404  -1.35414  -1.34940
  Beta  occ. eigenvalues --   -1.34365  -1.33797  -1.33301  -1.27257  -1.23237
  Beta  occ. eigenvalues --   -1.22535  -1.22121  -1.21328  -1.20737  -1.13482
  Beta  occ. eigenvalues --   -1.11533  -1.10547  -0.95320  -0.91609  -0.89343
  Beta  occ. eigenvalues --   -0.87525  -0.84046  -0.83506  -0.82696  -0.80813
  Beta  occ. eigenvalues --   -0.78901  -0.78585  -0.77659  -0.75224  -0.74133
  Beta  occ. eigenvalues --   -0.72912  -0.71722  -0.71290  -0.70391  -0.69600
  Beta  occ. eigenvalues --   -0.67975  -0.67796  -0.67070  -0.65955  -0.65185
  Beta  occ. eigenvalues --   -0.64751  -0.62582  -0.62433  -0.61573  -0.60515
  Beta  occ. eigenvalues --   -0.60241  -0.59068  -0.58874  -0.58756  -0.58022
  Beta  occ. eigenvalues --   -0.57669  -0.57532  -0.57142  -0.56833  -0.56334
  Beta  occ. eigenvalues --   -0.56049  -0.55976  -0.55671  -0.55169  -0.55045
  Beta  occ. eigenvalues --   -0.54081  -0.53647  -0.53304  -0.53142  -0.52960
  Beta  occ. eigenvalues --   -0.52565  -0.52229  -0.51516  -0.51327  -0.50742
  Beta  occ. eigenvalues --   -0.50102  -0.49523  -0.48455  -0.48376  -0.46029
  Beta  occ. eigenvalues --   -0.43715  -0.43345  -0.42416  -0.42278  -0.41719
  Beta  occ. eigenvalues --   -0.39772  -0.34530
  Beta virt. eigenvalues --   -0.28523  -0.03385  -0.02779   0.03135   0.04448
  Beta virt. eigenvalues --    0.05945   0.08739   0.10594   0.11992   0.12308
  Beta virt. eigenvalues --    0.12966   0.13546   0.14146   0.14700   0.15092

 Mulliken charges and spin densities:
               1          2
     1  C   -0.128214  -0.011325
     2  O   -0.333486   0.352628
     3  C    0.166657  -0.006190
     4  N   -0.603899   0.003348
     5  C    0.884108  -0.010069
     6  O   -0.479388   0.066748
     7  N   -0.610352   0.003652
     8  C    0.166580  -0.006899
     9  O   -0.331459   0.358523
    10  C   -0.128846  -0.011349
    11  C    0.880958  -0.003287
    12  O   -0.479256   0.018277
    13  N   -0.635245   0.001991
    14  C    0.760285  -0.000335
    15  F   -0.266500   0.000367
    16  F   -0.243599   0.000527
    17  C    0.438290   0.000114
    18  F   -0.270638   0.000144
    19  O   -0.492686   0.000032
    20  C    0.978300  -0.000003
    21  F   -0.233170   0.000000
    22  F   -0.235736   0.000001
    23  F   -0.238319   0.000001
    24  C    0.820660  -0.000042
    25  F   -0.241907   0.000009
    26  F   -0.256209   0.000001
    27  F   -0.247763   0.000035
    28  C    0.866708  -0.003385
    29  O   -0.478239   0.018083
    30  H    0.182762   0.030208
    31  H    0.184794   0.030259
    32  H    0.185774  -0.000479
    33  H    0.211474   0.023598
    34  H    0.218932   0.029668
    35  H    0.213477   0.024513
    36  H    0.218615   0.029398
    37  H    0.186476   0.030847
    38  H    0.183861   0.030885
    39  H    0.186204  -0.000494
 Sum of Mulliken charges =   1.00000   1.00000

 Dipole moment (field-independent basis, Debye):
    X=            -13.9924    Y=              0.6153    Z=              0.4160  Tot=             14.0121
 Quadrupole moment (field-independent basis, Debye-Ang):
   XX=           -122.2940   YY=           -103.9116   ZZ=           -137.9411
   XY=              1.0998   XZ=              0.3694   YZ=             26.2202

 Normal termination of Gaussian 09 at Sun Mar  3 17:43:33 2024.
