 Gaussian 09, Revision D.01,
 Gaussian 09:  ES64L-G09RevD.01 24-Apr-2013

 ----------------------------------------------------------------------
 #p CAM-B3LYP/6-31G(d,p) SCRF=(PCM,Solvent=Generic,Read) NoSymm out=wfn
 ----------------------------------------------------------------------

 -------------------
 Title A1386248941_0
 -------------------
 Symbolic Z-matrix:
 Charge =  0 Multiplicity = 1

                          Input orientation:
 ---------------------------------------------------------------------
 Center     Atomic      Atomic             Coordinates (Angstroms)
 Number     Number       Type             X           Y           Z
 ---------------------------------------------------------------------
      1          6           0       -3.302149   -3.805725   -1.548862
      2          8           0       -2.549161   -2.918412   -0.734000
      3          6           0       -2.235098   -1.714100   -1.430360
      4          7           0       -1.470337   -0.883039   -0.528069
      5          6           0       -2.148845    0.035207    0.241641
      6          8           0       -3.372528    0.167186    0.181700
      7          7           0       -1.366940    0.808055    1.072006
      8          6           0       -2.004554    1.891512    1.785447
      9          8           0       -1.961923    3.040045    0.941121
     10          6           0       -2.548460    4.168883    1.573332
     11          6           0       -0.007917    0.644421    1.218332
     12          8           0        0.656149    1.370961    1.957346
     13          7           0        0.566768   -0.373616    0.494299
     14          6           0        2.008496   -0.535560    0.589818
     15          9           0        2.341356   -0.488534    1.922330
     16          9           0        2.358096   -1.804912    0.244828
     17          6           0        2.895587    0.502974   -0.157536
     18          9           0        2.291889    1.739236   -0.062132
     19          8           0        4.169430    0.742711    0.466638
     20          6           0        5.107404   -0.287783    0.302686
     21          9           0        4.587445   -1.468094    0.658477
     22          9           0        6.170964   -0.029753    1.085186
     23          9           0        5.515616   -0.334899   -0.974112
     24          6           0        2.944991    0.173449   -1.648680
     25          9           0        3.378398   -1.076720   -1.901360
     26          9           0        3.784105    1.022366   -2.296200
     27          9           0        1.735026    0.326818   -2.233705
     28          6           0       -0.105742   -1.044171   -0.494819
     29          8           0        0.488973   -1.724714   -1.330204
     30          1           0       -4.251391   -3.346249   -1.840921
     31          1           0       -2.730421   -4.088632   -2.438002
     32          1           0       -3.515183   -4.708118   -0.969589
     33          1           0       -3.159180   -1.211327   -1.737070
     34          1           0       -1.652353   -1.948271   -2.328393
     35          1           0       -3.045934    1.642839    2.019110
     36          1           0       -1.477445    2.099618    2.723533
     37          1           0       -2.001882    4.424332    2.486279
     38          1           0       -3.600359    3.975512    1.804836
     39          1           0       -2.492890    5.016502    0.885070
 ---------------------------------------------------------------------

 SCF Done:  E(RCAM-B3LYP) =  -1938.75561648     A.U. after   13 cycles

 Alpha  occ. eigenvalues --  -24.83873 -24.83530 -24.83450 -24.83449 -24.83109
 Alpha  occ. eigenvalues --  -24.82978 -24.82454 -24.82415 -24.81620 -19.33004
 Alpha  occ. eigenvalues --  -19.23675 -19.23662 -19.23488 -19.23480 -19.23270
 Alpha  occ. eigenvalues --  -14.52641 -14.50323 -14.50321 -10.59566 -10.55158
 Alpha  occ. eigenvalues --  -10.52931 -10.48906 -10.45537 -10.45531 -10.44718
 Alpha  occ. eigenvalues --  -10.36266 -10.36264 -10.30621 -10.30605  -1.43383
 Alpha  occ. eigenvalues --   -1.41624  -1.38453  -1.35210  -1.33900  -1.33343
 Alpha  occ. eigenvalues --   -1.32614  -1.31975  -1.30845  -1.22402  -1.20343
 Alpha  occ. eigenvalues --   -1.17378  -1.17067  -1.13145  -1.12781  -1.09082
 Alpha  occ. eigenvalues --   -1.06645  -1.04911  -0.92865  -0.85961  -0.83462
 Alpha  occ. eigenvalues --   -0.83331  -0.82235  -0.78464  -0.77829  -0.75950
 Alpha  occ. eigenvalues --   -0.74583  -0.74070  -0.73125  -0.72515  -0.71282
 Alpha  occ. eigenvalues --   -0.70956  -0.70022  -0.68672  -0.68264  -0.67437
 Alpha  occ. eigenvalues --   -0.64836  -0.63783  -0.62441  -0.61888  -0.58927
 Alpha  occ. eigenvalues --   -0.58381  -0.57845  -0.57342  -0.57140  -0.57018
 Alpha  occ. eigenvalues --   -0.56422  -0.56235  -0.55695  -0.55550  -0.55099
 Alpha  occ. eigenvalues --   -0.55034  -0.54455  -0.54123  -0.53633  -0.53212
 Alpha  occ. eigenvalues --   -0.52805  -0.52362  -0.52028  -0.51324  -0.51218
 Alpha  occ. eigenvalues --   -0.50831  -0.50648  -0.50210  -0.49655  -0.49282
 Alpha  occ. eigenvalues --   -0.49058  -0.48870  -0.48465  -0.48268  -0.47600
 Alpha  occ. eigenvalues --   -0.47211  -0.47149  -0.43740  -0.40856  -0.40720
 Alpha  occ. eigenvalues --   -0.39485  -0.38933  -0.38332  -0.37195  -0.37106
 Alpha  occ. eigenvalues --   -0.35635  -0.33506  -0.33269
 Alpha virt. eigenvalues --    0.01143   0.01588   0.05950   0.07015   0.10750
 Alpha virt. eigenvalues --    0.13523   0.14689   0.15874   0.16696   0.17598
 Alpha virt. eigenvalues --    0.18593   0.19329   0.19696   0.19794   0.20212

 Mulliken charges:
               1
     1  C   -0.081444
     2  O   -0.500620
     3  C    0.209036
     4  N   -0.594613
     5  C    0.847274
     6  O   -0.513789
     7  N   -0.601341
     8  C    0.210846
     9  O   -0.500809
    10  C   -0.081290
    11  C    0.858361
    12  O   -0.505349
    13  N   -0.632436
    14  C    0.759593
    15  F   -0.272617
    16  F   -0.248949
    17  C    0.435699
    18  F   -0.270075
    19  O   -0.496531
    20  C    0.975759
    21  F   -0.233224
    22  F   -0.238622
    23  F   -0.240340
    24  C    0.819170
    25  F   -0.244505
    26  F   -0.260590
    27  F   -0.245163
    28  C    0.845282
    29  O   -0.503918
    30  H    0.113789
    31  H    0.114288
    32  H    0.134040
    33  H    0.145677
    34  H    0.145550
    35  H    0.145820
    36  H    0.144051
    37  H    0.114702
    38  H    0.113309
    39  H    0.133977
 Sum of Mulliken charges =   0.00000

 Dipole moment (field-independent basis, Debye):
    X=             -3.6171    Y=              0.0932    Z=             -0.2020  Tot=              3.6239
 Quadrupole moment (field-independent basis, Debye-Ang):
   XX=           -158.6566   YY=           -149.6534   ZZ=           -152.9916
   XY=             -0.6724   XZ=             -0.2260   YZ=              7.0320

 Normal termination of Gaussian 09 at Sun Mar  3 17:42:37 2024.
