 Gaussian 09, Revision D.01,
 Gaussian 09:  ES64L-G09RevD.01 24-Apr-2013

 ----------------------------------------------------------------------
 #p CAM-B3LYP/6-31G(d,p) SCRF=(PCM,Solvent=Generic,Read) NoSymm out=wfn
 ----------------------------------------------------------------------

 ------------------
 Title A899021200_0
 ------------------
 Symbolic Z-matrix:
 Charge =  0 Multiplicity = 1

                          Input orientation:
 ---------------------------------------------------------------------
 Center     Atomic      Atomic             Coordinates (Angstroms)
 Number     Number       Type             X           Y           Z
 ---------------------------------------------------------------------
      1          6           0       -0.828619    1.572097   -3.601342
      2          6           0        0.200766    1.647314   -2.749821
      3          7           0        0.220169    1.215292   -1.424364
      4          6           0       -0.932124    0.566469   -0.857244
      5          7           0       -0.918695    0.407651    0.560194
      6          6           0       -2.078997   -0.217976    1.207175
      7          9           0       -1.887107   -1.565384    1.197540
      8          9           0       -2.071845    0.177500    2.507703
      9          6           0       -3.485633    0.076344    0.618698
     10          9           0       -3.632864    1.430398    0.502995
     11          8           0       -3.546972   -0.453337   -0.717658
     12          6           0       -4.836523   -0.400098   -1.275312
     13          9           0       -5.443145    0.759659   -0.986787
     14          9           0       -4.712006   -0.503310   -2.611437
     15          9           0       -5.556263   -1.437594   -0.824843
     16          6           0       -4.501151   -0.495752    1.623535
     17          9           0       -5.773971   -0.225568    1.242356
     18          9           0       -4.373285    0.016123    2.865221
     19          9           0       -4.403273   -1.840477    1.718454
     20          6           0        0.292792    0.218984    1.178771
     21          8           0        0.395546   -0.441076    2.208460
     22          7           0        1.377212    0.827608    0.591734
     23          6           0        2.648675    0.725805    1.299183
     24          9           0        2.431474    0.928245    2.631615
     25          9           0        3.445701    1.781656    0.959388
     26          6           0        3.413023   -0.603432    1.072347
     27          9           0        2.675188   -1.640246    1.567830
     28          8           0        3.524048   -0.861579   -0.333163
     29          6           0        4.402649   -1.910352   -0.638522
     30          9           0        4.208109   -2.959381    0.175220
     31          9           0        4.174709   -2.301144   -1.906695
     32          9           0        5.669011   -1.475654   -0.542472
     33          6           0        4.718574   -0.463868    1.867887
     34          9           0        4.518739   -0.147536    3.165551
     35          9           0        5.533762    0.478326    1.342639
     36          9           0        5.422546   -1.623115    1.870320
     37          6           0        1.421813    1.229152   -0.725380
     38          8           0        2.475235    1.567523   -1.268636
     39          1           0       -1.796271    1.150426   -3.360903
     40          1           0       -0.710092    1.948085   -4.615081
     41          1           0        1.131854    2.087392   -3.112797
     42          1           0       -1.012172   -0.426664   -1.315512
     43          1           0       -1.800584    1.181490   -1.106847
 ---------------------------------------------------------------------

 SCF Done:  E(RCAM-B3LYP) =  -2759.84776111     A.U. after   13 cycles

 Alpha  occ. eigenvalues --  -24.84919 -24.84658 -24.84512 -24.84477 -24.83916
 Alpha  occ. eigenvalues --  -24.83780 -24.83510 -24.83423 -24.83325 -24.83162
 Alpha  occ. eigenvalues --  -24.82845 -24.82730 -24.82531 -24.82499 -24.82321
 Alpha  occ. eigenvalues --  -24.82249 -24.82016 -24.81931 -19.34473 -19.32715
 Alpha  occ. eigenvalues --  -19.22872 -19.22281 -14.51657 -14.50061 -14.49318
 Alpha  occ. eigenvalues --  -10.60770 -10.59340 -10.56335 -10.54898 -10.52907
 Alpha  occ. eigenvalues --  -10.52530 -10.50215 -10.48431 -10.44958 -10.44379
 Alpha  occ. eigenvalues --  -10.37678 -10.32306 -10.27047  -1.44388  -1.42978
 Alpha  occ. eigenvalues --   -1.42480  -1.41267  -1.38870  -1.38204  -1.36987
 Alpha  occ. eigenvalues --   -1.35156  -1.34773  -1.34403  -1.33477  -1.33297
 Alpha  occ. eigenvalues --   -1.33041  -1.32886  -1.32240  -1.31829  -1.31651
 Alpha  occ. eigenvalues --   -1.30692  -1.21861  -1.20733  -1.20148  -1.16243
 Alpha  occ. eigenvalues --   -1.10484  -1.07585  -1.05171  -0.94198  -0.92979
 Alpha  occ. eigenvalues --   -0.87397  -0.85852  -0.84496  -0.83080  -0.81915
 Alpha  occ. eigenvalues --   -0.80352  -0.78699  -0.76923  -0.75806  -0.74129
 Alpha  occ. eigenvalues --   -0.73384  -0.72405  -0.71955  -0.71596  -0.71068
 Alpha  occ. eigenvalues --   -0.70583  -0.70127  -0.69944  -0.69345  -0.69009
 Alpha  occ. eigenvalues --   -0.68293  -0.68049  -0.67160  -0.66685  -0.66222
 Alpha  occ. eigenvalues --   -0.65784  -0.65322  -0.64926  -0.63488  -0.62639
 Alpha  occ. eigenvalues --   -0.60919  -0.59528  -0.59426  -0.58340  -0.58250
 Alpha  occ. eigenvalues --   -0.58000  -0.57415  -0.57003  -0.56798  -0.56739
 Alpha  occ. eigenvalues --   -0.56220  -0.55895  -0.55713  -0.55612  -0.55237
 Alpha  occ. eigenvalues --   -0.54757  -0.54605  -0.54355  -0.54161  -0.53555
 Alpha  occ. eigenvalues --   -0.53355  -0.53105  -0.53064  -0.52926  -0.52631
 Alpha  occ. eigenvalues --   -0.52492  -0.52218  -0.51979  -0.51476  -0.51457
 Alpha  occ. eigenvalues --   -0.51235  -0.50954  -0.50604  -0.50494  -0.50192
 Alpha  occ. eigenvalues --   -0.50040  -0.50019  -0.49518  -0.49353  -0.49231
 Alpha  occ. eigenvalues --   -0.48951  -0.48418  -0.48244  -0.47042  -0.45697
 Alpha  occ. eigenvalues --   -0.45326  -0.44824  -0.44108  -0.41695  -0.38907
 Alpha  occ. eigenvalues --   -0.37081  -0.36447  -0.35502  -0.30438
 Alpha virt. eigenvalues --    0.00778   0.04385   0.05992   0.06688   0.07165
 Alpha virt. eigenvalues --    0.08945   0.10986   0.13674   0.14329   0.14883
 Alpha virt. eigenvalues --    0.15463   0.16993   0.17272   0.17691   0.18044

 Mulliken charges:
               1
     1  C   -0.308973
     2  C    0.148204
     3  N   -0.566976
     4  C    0.147644
     5  N   -0.615655
     6  C    0.794455
     7  F   -0.260033
     8  F   -0.263539
     9  C    0.382534
    10  F   -0.265163
    11  O   -0.520459
    12  C    1.000858
    13  F   -0.239117
    14  F   -0.238799
    15  F   -0.237802
    16  C    0.819654
    17  F   -0.255967
    18  F   -0.236818
    19  F   -0.240326
    20  C    0.826061
    21  O   -0.488261
    22  N   -0.667146
    23  C    0.754323
    24  F   -0.257022
    25  F   -0.252011
    26  C    0.435966
    27  F   -0.255475
    28  O   -0.507116
    29  C    0.993760
    30  F   -0.243216
    31  F   -0.241100
    32  F   -0.242747
    33  C    0.811794
    34  F   -0.243393
    35  F   -0.245756
    36  F   -0.261278
    37  C    0.830082
    38  O   -0.506605
    39  H    0.108833
    40  H    0.127198
    41  H    0.165343
    42  H    0.159432
    43  H    0.154611
 Sum of Mulliken charges =   0.00000

 Dipole moment (field-independent basis, Debye):
    X=             -4.0643    Y=              0.6254    Z=             -3.4609  Tot=              5.3747
 Quadrupole moment (field-independent basis, Debye-Ang):
   XX=           -207.6368   YY=           -203.1192   ZZ=           -204.9779
   XY=             -4.7096   XZ=              3.4698   YZ=              1.4835

 Normal termination of Gaussian 09 at Tue Mar  5 18:16:32 2024.
