 Gaussian 09, Revision D.01,
 Gaussian 09:  ES64L-G09RevD.01 24-Apr-2013

 ----------------------------------------------------------------------
 #p CAM-B3LYP/6-31G(d,p) SCRF=(PCM,Solvent=Generic,Read) NoSymm out=wfn
 ----------------------------------------------------------------------

 -------------------
 Title A899021200_p1
 -------------------
 Symbolic Z-matrix:
 Charge =  1 Multiplicity = 2

                          Input orientation:
 ---------------------------------------------------------------------
 Center     Atomic      Atomic             Coordinates (Angstroms)
 Number     Number       Type             X           Y           Z
 ---------------------------------------------------------------------
      1          6           0       -3.692599   -1.061065    1.353522
      2          6           0       -3.137620   -0.570429    0.239994
      3          7           0       -1.930511    0.108897    0.126493
      4          6           0       -1.101005    0.419108    1.258018
      5          7           0        0.284975    0.342038    0.901224
      6          6           0        1.279641    0.259910    1.972124
      7          9           0        2.512168    0.042933    1.433272
      8          9           0        1.333539    1.499246    2.546160
      9          6           0        1.109359   -0.781260    3.113288
     10          9           0        2.190422   -0.660045    3.946986
     11          8           0       -0.028670   -0.431609    3.914072
     12          6           0       -0.331352   -1.406650    4.880617
     13          9           0       -1.139048   -0.851018    5.801298
     14          9           0       -0.996334   -2.406791    4.278693
     15          9           0        0.770915   -1.872489    5.481340
     16          6           0        1.123292   -2.165567    2.453230
     17          9           0        0.013041   -2.353177    1.700173
     18          9           0        1.136750   -3.158519    3.372672
     19          9           0        2.189264   -2.366383    1.652792
     20          6           0        0.636779    1.109247   -0.199648
     21          8           0        1.782795    1.505382   -0.374810
     22          7           0       -0.376366    1.366996   -1.104355
     23          6           0       -0.043079    2.132177   -2.300816
     24          9           0       -1.177596    2.691172   -2.821189
     25          9           0        0.655747    3.242211   -1.882347
     26          6           0        0.778842    1.469161   -3.444683
     27          9           0        1.032437    2.450769   -4.373502
     28          8           0        2.058683    1.060227   -2.955424
     29          6           0        2.847382    0.387781   -3.897198
     30          9           0        2.452344   -0.896182   -3.956329
     31          9           0        4.130686    0.420507   -3.492878
     32          9           0        2.761553    0.951723   -5.111708
     33          6           0       -0.067255    0.378936   -4.103690
     34          9           0        0.542975   -0.125244   -5.205223
     35          9           0       -0.252725   -0.666077   -3.263767
     36          9           0       -1.270060    0.819967   -4.519997
     37          6           0       -1.573664    0.682729   -1.093006
     38          8           0       -2.268630    0.567506   -2.100247
     39          1           0       -3.267263   -0.988656    2.345233
     40          1           0       -4.650116   -1.573354    1.286596
     41          1           0       -3.682163   -0.705007   -0.697335
     42          1           0       -1.334803    1.431645    1.608925
     43          1           0       -1.302732   -0.300745    2.044130
 ---------------------------------------------------------------------

 SCF Done:  E(UCAM-B3LYP) =  -2759.59035419     A.U. after   20 cycles

 Alpha  occ. eigenvalues --  -24.87462 -24.86662 -24.86659 -24.86524 -24.86389
 Alpha  occ. eigenvalues --  -24.86201 -24.86074 -24.85862 -24.85819 -24.85493
 Alpha  occ. eigenvalues --  -24.85455 -24.85133 -24.84920 -24.84767 -24.84699
 Alpha  occ. eigenvalues --  -24.84684 -24.84660 -24.84627 -19.37026 -19.34716
 Alpha  occ. eigenvalues --  -19.31821 -19.27620 -14.63469 -14.57973 -14.55165
 Alpha  occ. eigenvalues --  -10.62779 -10.60984 -10.58850 -10.57664 -10.56679
 Alpha  occ. eigenvalues --  -10.56136 -10.52704 -10.52536 -10.51461 -10.49829
 Alpha  occ. eigenvalues --  -10.45598 -10.44573 -10.41813  -1.46383  -1.45118
 Alpha  occ. eigenvalues --   -1.44805  -1.43747  -1.41643  -1.41572  -1.38240
 Alpha  occ. eigenvalues --   -1.37095  -1.36643  -1.36410  -1.36226  -1.35409
 Alpha  occ. eigenvalues --   -1.35399  -1.34776  -1.34685  -1.34392  -1.34040
 Alpha  occ. eigenvalues --   -1.33764  -1.28319  -1.24327  -1.22925  -1.22288
 Alpha  occ. eigenvalues --   -1.19491  -1.13822  -1.12380  -1.00357  -0.97042
 Alpha  occ. eigenvalues --   -0.96051  -0.92228  -0.88768  -0.87125  -0.85728
 Alpha  occ. eigenvalues --   -0.84508  -0.82990  -0.81101  -0.78709  -0.78303
 Alpha  occ. eigenvalues --   -0.77545  -0.76417  -0.75402  -0.74884  -0.74127
 Alpha  occ. eigenvalues --   -0.73808  -0.73306  -0.72699  -0.72403  -0.71760
 Alpha  occ. eigenvalues --   -0.71271  -0.71214  -0.71129  -0.70318  -0.69932
 Alpha  occ. eigenvalues --   -0.68957  -0.68572  -0.68343  -0.67994  -0.67779
 Alpha  occ. eigenvalues --   -0.67068  -0.64954  -0.63599  -0.63043  -0.62028
 Alpha  occ. eigenvalues --   -0.61378  -0.61011  -0.60694  -0.60168  -0.60064
 Alpha  occ. eigenvalues --   -0.59405  -0.59173  -0.58871  -0.58712  -0.58617
 Alpha  occ. eigenvalues --   -0.58205  -0.58024  -0.57706  -0.57466  -0.57250
 Alpha  occ. eigenvalues --   -0.56537  -0.56383  -0.56276  -0.55900  -0.55674
 Alpha  occ. eigenvalues --   -0.55395  -0.55274  -0.55023  -0.54850  -0.54693
 Alpha  occ. eigenvalues --   -0.54057  -0.53939  -0.53836  -0.53475  -0.53332
 Alpha  occ. eigenvalues --   -0.53004  -0.52815  -0.52678  -0.52449  -0.52327
 Alpha  occ. eigenvalues --   -0.51893  -0.51792  -0.51283  -0.51172  -0.50685
 Alpha  occ. eigenvalues --   -0.49283  -0.48317  -0.47938  -0.46657  -0.45529
 Alpha  occ. eigenvalues --   -0.44550  -0.44054  -0.42213  -0.40528
 Alpha virt. eigenvalues --   -0.08145  -0.03098   0.00520   0.02182   0.03392
 Alpha virt. eigenvalues --    0.05259   0.05499   0.07123   0.07951   0.09295
 Alpha virt. eigenvalues --    0.10349   0.11676   0.12481   0.12993   0.13208

  Beta  occ. eigenvalues --  -24.87461 -24.86662 -24.86659 -24.86524 -24.86389
  Beta  occ. eigenvalues --  -24.86198 -24.86072 -24.85862 -24.85819 -24.85491
  Beta  occ. eigenvalues --  -24.85454 -24.85133 -24.84920 -24.84767 -24.84699
  Beta  occ. eigenvalues --  -24.84684 -24.84660 -24.84627 -19.37025 -19.34716
  Beta  occ. eigenvalues --  -19.31542 -19.27623 -14.62647 -14.57968 -14.55147
  Beta  occ. eigenvalues --  -10.62779 -10.60984 -10.58850 -10.57664 -10.56681
  Beta  occ. eigenvalues --  -10.56135 -10.52819 -10.52537 -10.51460 -10.49831
  Beta  occ. eigenvalues --  -10.45578 -10.44605 -10.40970  -1.46383  -1.45118
  Beta  occ. eigenvalues --   -1.44804  -1.43746  -1.41640  -1.41569  -1.38240
  Beta  occ. eigenvalues --   -1.37093  -1.36643  -1.36409  -1.36226  -1.35405
  Beta  occ. eigenvalues --   -1.35399  -1.34775  -1.34685  -1.34389  -1.34039
  Beta  occ. eigenvalues --   -1.33762  -1.27799  -1.24325  -1.22800  -1.22245
  Beta  occ. eigenvalues --   -1.18544  -1.13687  -1.12099  -0.98693  -0.96802
  Beta  occ. eigenvalues --   -0.95939  -0.91981  -0.88496  -0.86781  -0.85681
  Beta  occ. eigenvalues --   -0.84410  -0.82964  -0.80945  -0.78642  -0.78110
  Beta  occ. eigenvalues --   -0.77330  -0.76400  -0.75240  -0.74875  -0.74107
  Beta  occ. eigenvalues --   -0.73677  -0.73184  -0.72686  -0.72360  -0.71690
  Beta  occ. eigenvalues --   -0.71236  -0.71173  -0.70523  -0.70282  -0.69537
  Beta  occ. eigenvalues --   -0.68921  -0.68432  -0.68145  -0.67858  -0.67595
  Beta  occ. eigenvalues --   -0.67042  -0.64729  -0.63068  -0.62976  -0.61885
  Beta  occ. eigenvalues --   -0.61234  -0.60583  -0.60532  -0.60138  -0.59468
  Beta  occ. eigenvalues --   -0.59279  -0.59154  -0.58768  -0.58676  -0.58548
  Beta  occ. eigenvalues --   -0.58098  -0.57904  -0.57686  -0.57392  -0.57185
  Beta  occ. eigenvalues --   -0.56522  -0.56369  -0.56033  -0.55813  -0.55634
  Beta  occ. eigenvalues --   -0.55331  -0.55196  -0.54855  -0.54800  -0.54667
  Beta  occ. eigenvalues --   -0.54032  -0.53881  -0.53785  -0.53447  -0.53234
  Beta  occ. eigenvalues --   -0.52995  -0.52702  -0.52589  -0.52423  -0.52146
  Beta  occ. eigenvalues --   -0.51812  -0.51400  -0.51195  -0.50683  -0.49478
  Beta  occ. eigenvalues --   -0.49042  -0.48016  -0.47880  -0.46585  -0.45207
  Beta  occ. eigenvalues --   -0.43734  -0.42082  -0.40466
  Beta virt. eigenvalues --   -0.23308  -0.05512  -0.01231   0.01513   0.02189
  Beta virt. eigenvalues --    0.03423   0.05314   0.05526   0.07513   0.08104
  Beta virt. eigenvalues --    0.09736   0.10376   0.11962   0.12635   0.13066

 Mulliken charges and spin densities:
               1          2
     1  C   -0.151571   0.602541
     2  C    0.232223   0.032010
     3  N   -0.468823   0.353318
     4  C    0.087551  -0.021906
     5  N   -0.583630   0.005647
     6  C    0.747888   0.000650
     7  F   -0.246427   0.000442
     8  F   -0.261563   0.000174
     9  C    0.399469  -0.000034
    10  F   -0.254814  -0.000002
    11  O   -0.521469   0.000134
    12  C    1.006231  -0.000004
    13  F   -0.232245  -0.000001
    14  F   -0.247014   0.000002
    15  F   -0.229534   0.000002
    16  C    0.823271  -0.000023
    17  F   -0.250411   0.000114
    18  F   -0.245655   0.000000
    19  F   -0.228614   0.000006
    20  C    0.863974  -0.000515
    21  O   -0.450048  -0.000874
    22  N   -0.662514   0.004863
    23  C    0.745913  -0.000452
    24  F   -0.246487   0.000285
    25  F   -0.256380   0.000100
    26  C    0.441825   0.000154
    27  F   -0.261571   0.000142
    28  O   -0.499016   0.000027
    29  C    0.999217   0.000010
    30  F   -0.248263   0.000003
    31  F   -0.235126   0.000000
    32  F   -0.240932   0.000002
    33  C    0.818084  -0.000035
    34  F   -0.250947   0.000029
    35  F   -0.252479   0.000591
    36  F   -0.234264   0.000088
    37  C    0.879533  -0.061788
    38  O   -0.427993   0.110611
    39  H    0.219862  -0.024028
    40  H    0.244613  -0.026770
    41  H    0.257474  -0.001921
    42  H    0.241294   0.021476
    43  H    0.179366   0.004929
 Sum of Mulliken charges =   1.00000   1.00000

 Dipole moment (field-independent basis, Debye):
    X=            -14.4935    Y=             -3.2042    Z=              6.6211  Tot=             16.2532
 Quadrupole moment (field-independent basis, Debye-Ang):
   XX=           -158.2769   YY=           -195.6507   ZZ=           -186.4512
   XY=              6.6347   XZ=            -16.3424   YZ=             -3.5794

 Normal termination of Gaussian 09 at Sun Mar  3 18:01:10 2024.
