 Gaussian 09, Revision D.01,
 Gaussian 09:  ES64L-G09RevD.01 24-Apr-2013

 ----------------------------------------------------------------------
 #p CAM-B3LYP/6-31G(d,p) SCRF=(PCM,Solvent=Generic,Read) NoSymm out=wfn
 ----------------------------------------------------------------------

 ------------------
 Title A903371600_0
 ------------------
 Symbolic Z-matrix:
 Charge =  0 Multiplicity = 1

                          Input orientation:
 ---------------------------------------------------------------------
 Center     Atomic      Atomic             Coordinates (Angstroms)
 Number     Number       Type             X           Y           Z
 ---------------------------------------------------------------------
      1          6           0       -4.010892   -2.662761   -0.524433
      2          6           0       -3.144078   -1.422273   -0.664977
      3          6           0       -2.287784   -1.193964    0.583442
      4          7           0       -1.445491   -0.003842    0.457395
      5          6           0       -2.001071    1.218652    0.772411
      6          8           0       -3.150111    1.326257    1.202920
      7          7           0       -1.205961    2.314916    0.524428
      8          6           0       -1.791274    3.632843    0.702676
      9          6           0        0.012795    2.223941   -0.116139
     10          8           0        0.517816    3.209385   -0.653896
     11          7           0        0.590554    0.975775   -0.144045
     12          6           0        1.931640    0.912940   -0.719348
     13          9           0        2.628314    1.975534   -0.206075
     14          9           0        1.846068    1.131332   -2.060158
     15          6           0        2.809286   -0.340869   -0.450696
     16          9           0        2.423251   -1.369018   -1.260375
     17          8           0        2.609002   -0.764176    0.908012
     18          6           0        3.480894   -1.798731    1.286403
     19          9           0        4.681704   -1.272252    1.578679
     20          9           0        2.988306   -2.380517    2.396186
     21          9           0        3.605001   -2.725736    0.326410
     22          6           0        4.240785    0.060334   -0.838314
     23          9           0        4.772405    0.951143    0.029882
     24          9           0        5.068919   -1.013942   -0.834336
     25          9           0        4.318756    0.596121   -2.075403
     26          6           0       -0.207880   -0.133551   -0.139317
     27          8           0        0.132055   -1.193947   -0.657207
     28          1           0       -4.690798   -2.571450    0.328607
     29          1           0       -4.614469   -2.807643   -1.425866
     30          1           0       -3.395739   -3.556672   -0.380204
     31          1           0       -2.502880   -1.528021   -1.547808
     32          1           0       -3.785834   -0.552064   -0.845807
     33          1           0       -2.933429   -1.085364    1.463179
     34          1           0       -1.649628   -2.067608    0.763248
     35          1           0       -2.360629    3.883061   -0.198241
     36          1           0       -1.013548    4.387295    0.854884
     37          1           0       -2.466057    3.644873    1.563883
 ---------------------------------------------------------------------

 SCF Done:  E(RCAM-B3LYP) =  -1788.39663099     A.U. after   13 cycles

 Alpha  occ. eigenvalues --  -24.83696 -24.83466 -24.83377 -24.83310 -24.82683
 Alpha  occ. eigenvalues --  -24.82637 -24.82527 -24.82470 -24.81775 -19.33059
 Alpha  occ. eigenvalues --  -19.23214 -19.23103 -19.22438 -14.51790 -14.49413
 Alpha  occ. eigenvalues --  -14.49173 -10.59544 -10.55253 -10.52894 -10.48879
 Alpha  occ. eigenvalues --  -10.44798 -10.44792 -10.43577 -10.30882 -10.30670
 Alpha  occ. eigenvalues --  -10.26115 -10.24988  -1.43159  -1.41593  -1.38502
 Alpha  occ. eigenvalues --   -1.34928  -1.33427  -1.33208  -1.32593  -1.32030
 Alpha  occ. eigenvalues --   -1.31421  -1.21582  -1.20418  -1.16674  -1.16118
 Alpha  occ. eigenvalues --   -1.08584  -1.06096  -1.04692  -0.93152  -0.88271
 Alpha  occ. eigenvalues --   -0.84740  -0.82689  -0.81740  -0.80501  -0.77840
 Alpha  occ. eigenvalues --   -0.75142  -0.74672  -0.72891  -0.72499  -0.70728
 Alpha  occ. eigenvalues --   -0.70323  -0.69578  -0.68637  -0.68284  -0.67178
 Alpha  occ. eigenvalues --   -0.66785  -0.65708  -0.64876  -0.61228  -0.59959
 Alpha  occ. eigenvalues --   -0.59210  -0.57411  -0.57085  -0.56167  -0.56047
 Alpha  occ. eigenvalues --   -0.55604  -0.55446  -0.54896  -0.54432  -0.54403
 Alpha  occ. eigenvalues --   -0.54226  -0.53884  -0.53257  -0.52912  -0.52656
 Alpha  occ. eigenvalues --   -0.51998  -0.51753  -0.51432  -0.51233  -0.50224
 Alpha  occ. eigenvalues --   -0.50189  -0.50017  -0.49658  -0.49016  -0.48345
 Alpha  occ. eigenvalues --   -0.48220  -0.47521  -0.47445  -0.45775  -0.45581
 Alpha  occ. eigenvalues --   -0.44071  -0.43647  -0.41872  -0.40194  -0.39283
 Alpha  occ. eigenvalues --   -0.38802  -0.37713  -0.35625  -0.34996  -0.34686
 Alpha virt. eigenvalues --    0.01381   0.02841   0.07290   0.08096   0.11349
 Alpha virt. eigenvalues --    0.14214   0.16319   0.16863   0.17499   0.17813
 Alpha virt. eigenvalues --    0.17887   0.19084   0.19380   0.19716   0.20301

 Mulliken charges:
               1
     1  C   -0.328196
     2  C   -0.187520
     3  C   -0.048400
     4  N   -0.575529
     5  C    0.819152
     6  O   -0.526313
     7  N   -0.564087
     8  C   -0.181303
     9  C    0.815689
    10  O   -0.497843
    11  N   -0.633846
    12  C    0.797827
    13  F   -0.274540
    14  F   -0.256288
    15  C    0.413411
    16  F   -0.253419
    17  O   -0.518198
    18  C    0.994677
    19  F   -0.244801
    20  F   -0.240964
    21  F   -0.238078
    22  C    0.814431
    23  F   -0.247836
    24  F   -0.260238
    25  F   -0.242491
    26  C    0.826802
    27  O   -0.507509
    28  H    0.113025
    29  H    0.114624
    30  H    0.113469
    31  H    0.119124
    32  H    0.116627
    33  H    0.147936
    34  H    0.145070
    35  H    0.154553
    36  H    0.159153
    37  H    0.161833
 Sum of Mulliken charges =   0.00000

 Dipole moment (field-independent basis, Debye):
    X=             -2.4295    Y=             -0.2797    Z=              1.6193  Tot=              2.9330
 Quadrupole moment (field-independent basis, Debye-Ang):
   XX=           -154.4923   YY=           -147.5879   ZZ=           -148.6168
   XY=             -1.7805   XZ=              5.5569   YZ=              2.4706

 Normal termination of Gaussian 09 at Sun Mar  3 17:58:31 2024.
