 Gaussian 09, Revision D.01,
 Gaussian 09:  ES64L-G09RevD.01 24-Apr-2013

 ----------------------------------------------------------------------
 #p CAM-B3LYP/6-31G(d,p) SCRF=(PCM,Solvent=Generic,Read) NoSymm out=wfn
 ----------------------------------------------------------------------

 -------------------
 Title A903371600_p1
 -------------------
 Symbolic Z-matrix:
 Charge =  1 Multiplicity = 2

                          Input orientation:
 ---------------------------------------------------------------------
 Center     Atomic      Atomic             Coordinates (Angstroms)
 Number     Number       Type             X           Y           Z
 ---------------------------------------------------------------------
      1          6           0       -4.010892   -2.662761   -0.524433
      2          6           0       -3.144078   -1.422273   -0.664977
      3          6           0       -2.287784   -1.193964    0.583442
      4          7           0       -1.445491   -0.003842    0.457395
      5          6           0       -2.001071    1.218652    0.772411
      6          8           0       -3.150111    1.326257    1.202920
      7          7           0       -1.205961    2.314916    0.524428
      8          6           0       -1.791274    3.632843    0.702676
      9          6           0        0.012795    2.223941   -0.116139
     10          8           0        0.517816    3.209385   -0.653896
     11          7           0        0.590554    0.975775   -0.144045
     12          6           0        1.931640    0.912940   -0.719348
     13          9           0        2.628314    1.975534   -0.206075
     14          9           0        1.846068    1.131332   -2.060158
     15          6           0        2.809286   -0.340869   -0.450696
     16          9           0        2.423251   -1.369018   -1.260375
     17          8           0        2.609002   -0.764176    0.908012
     18          6           0        3.480894   -1.798731    1.286403
     19          9           0        4.681704   -1.272252    1.578679
     20          9           0        2.988306   -2.380517    2.396186
     21          9           0        3.605001   -2.725736    0.326410
     22          6           0        4.240785    0.060334   -0.838314
     23          9           0        4.772405    0.951143    0.029882
     24          9           0        5.068919   -1.013942   -0.834336
     25          9           0        4.318756    0.596121   -2.075403
     26          6           0       -0.207880   -0.133551   -0.139317
     27          8           0        0.132055   -1.193947   -0.657207
     28          1           0       -4.690798   -2.571450    0.328607
     29          1           0       -4.614469   -2.807643   -1.425866
     30          1           0       -3.395739   -3.556672   -0.380204
     31          1           0       -2.502880   -1.528021   -1.547808
     32          1           0       -3.785834   -0.552064   -0.845807
     33          1           0       -2.933429   -1.085364    1.463179
     34          1           0       -1.649628   -2.067608    0.763248
     35          1           0       -2.360629    3.883061   -0.198241
     36          1           0       -1.013548    4.387295    0.854884
     37          1           0       -2.466057    3.644873    1.563883
 ---------------------------------------------------------------------

 SCF Done:  E(UCAM-B3LYP) =  -1788.08107841     A.U. after   65 cycles

 Alpha  occ. eigenvalues --  -24.86510 -24.86409 -24.85953 -24.85677 -24.85573
 Alpha  occ. eigenvalues --  -24.85411 -24.85358 -24.84835 -24.84815 -19.36200
 Alpha  occ. eigenvalues --  -19.35298 -19.31210 -19.30208 -14.65856 -14.58719
 Alpha  occ. eigenvalues --  -14.58119 -10.61965 -10.57705 -10.57368 -10.54367
 Alpha  occ. eigenvalues --  -10.52296 -10.52222 -10.51316 -10.40041 -10.35623
 Alpha  occ. eigenvalues --  -10.33678 -10.29591  -1.45436  -1.43959  -1.42279
 Alpha  occ. eigenvalues --   -1.38336  -1.35766  -1.35673  -1.35357  -1.34508
 Alpha  occ. eigenvalues --   -1.34046  -1.31450  -1.26074  -1.24145  -1.23521
 Alpha  occ. eigenvalues --   -1.18330  -1.15225  -1.13265  -0.97262  -0.96153
 Alpha  occ. eigenvalues --   -0.90950  -0.90162  -0.88037  -0.84742  -0.83309
 Alpha  occ. eigenvalues --   -0.82140  -0.81382  -0.78173  -0.76074  -0.75177
 Alpha  occ. eigenvalues --   -0.74463  -0.73028  -0.72664  -0.71610  -0.70971
 Alpha  occ. eigenvalues --   -0.70525  -0.69691  -0.68603  -0.68149  -0.67476
 Alpha  occ. eigenvalues --   -0.64652  -0.63173  -0.62829  -0.62720  -0.61751
 Alpha  occ. eigenvalues --   -0.61448  -0.59853  -0.59500  -0.59350  -0.58928
 Alpha  occ. eigenvalues --   -0.58430  -0.58163  -0.57870  -0.57140  -0.56523
 Alpha  occ. eigenvalues --   -0.56264  -0.55529  -0.55081  -0.54811  -0.54286
 Alpha  occ. eigenvalues --   -0.53997  -0.53782  -0.52920  -0.52738  -0.52421
 Alpha  occ. eigenvalues --   -0.52145  -0.52069  -0.51570  -0.51084  -0.50845
 Alpha  occ. eigenvalues --   -0.49189  -0.48902  -0.48091  -0.47076  -0.46825
 Alpha  occ. eigenvalues --   -0.46034  -0.45496  -0.45187  -0.43000  -0.42361
 Alpha virt. eigenvalues --   -0.06925  -0.05336   0.01958   0.03840   0.05300
 Alpha virt. eigenvalues --    0.07923   0.10198   0.10792   0.12183   0.13457
 Alpha virt. eigenvalues --    0.13918   0.14300   0.14356   0.15171   0.15656

  Beta  occ. eigenvalues --  -24.86513 -24.86409 -24.85953 -24.85677 -24.85573
  Beta  occ. eigenvalues --  -24.85411 -24.85351 -24.84834 -24.84815 -19.36194
  Beta  occ. eigenvalues --  -19.34615 -19.31092 -19.30051 -14.64642 -14.58770
  Beta  occ. eigenvalues --  -14.57845 -10.61966 -10.57705 -10.57368 -10.54584
  Beta  occ. eigenvalues --  -10.52347 -10.52296 -10.51376 -10.39992 -10.35620
  Beta  occ. eigenvalues --  -10.33499 -10.29571  -1.45435  -1.43959  -1.42282
  Beta  occ. eigenvalues --   -1.38322  -1.35768  -1.35673  -1.35357  -1.34508
  Beta  occ. eigenvalues --   -1.34046  -1.30484  -1.25319  -1.23759  -1.23495
  Beta  occ. eigenvalues --   -1.16868  -1.14582  -1.12695  -0.97054  -0.95725
  Beta  occ. eigenvalues --   -0.90637  -0.90015  -0.87795  -0.84707  -0.83064
  Beta  occ. eigenvalues --   -0.81897  -0.81109  -0.78139  -0.75912  -0.74559
  Beta  occ. eigenvalues --   -0.74166  -0.72997  -0.72579  -0.71519  -0.70656
  Beta  occ. eigenvalues --   -0.70220  -0.69328  -0.68321  -0.67630  -0.66828
  Beta  occ. eigenvalues --   -0.64028  -0.62789  -0.62506  -0.61652  -0.61124
  Beta  occ. eigenvalues --   -0.60487  -0.59687  -0.59384  -0.59227  -0.58589
  Beta  occ. eigenvalues --   -0.58294  -0.57999  -0.57654  -0.57115  -0.56410
  Beta  occ. eigenvalues --   -0.56031  -0.55242  -0.54773  -0.54273  -0.53919
  Beta  occ. eigenvalues --   -0.53868  -0.53149  -0.52826  -0.52615  -0.52407
  Beta  occ. eigenvalues --   -0.52131  -0.51862  -0.51541  -0.51078  -0.49799
  Beta  occ. eigenvalues --   -0.48908  -0.47708  -0.47031  -0.46528  -0.45961
  Beta  occ. eigenvalues --   -0.45332  -0.44536  -0.42242  -0.40862
  Beta virt. eigenvalues --   -0.28277  -0.06116  -0.04191   0.02735   0.03872
  Beta virt. eigenvalues --    0.05573   0.08455   0.10324   0.11112   0.12275
  Beta virt. eigenvalues --    0.13516   0.14050   0.14316   0.14553   0.15206

 Mulliken charges and spin densities:
               1          2
     1  C   -0.333187   0.012322
     2  C   -0.210644   0.093430
     3  C   -0.097480   0.018764
     4  N   -0.442498   0.551199
     5  C    0.855471  -0.073540
     6  O   -0.439183   0.051788
     7  N   -0.541554   0.125577
     8  C   -0.201035  -0.001053
     9  C    0.853019  -0.033176
    10  O   -0.428083   0.062413
    11  N   -0.638262  -0.014385
    12  C    0.805984  -0.001225
    13  F   -0.260810  -0.000019
    14  F   -0.241547  -0.000489
    15  C    0.404904  -0.000009
    16  F   -0.250585   0.001601
    17  O   -0.521844   0.001707
    18  C    0.999431  -0.000040
    19  F   -0.238890   0.000142
    20  F   -0.237450  -0.000002
    21  F   -0.234417   0.000000
    22  C    0.823827  -0.000039
    23  F   -0.243117   0.000031
    24  F   -0.253749   0.000000
    25  F   -0.237892   0.000014
    26  C    0.880137  -0.125577
    27  O   -0.370475   0.268595
    28  H    0.141905   0.000404
    29  H    0.156569   0.011989
    30  H    0.140811  -0.000318
    31  H    0.164081  -0.001009
    32  H    0.165625  -0.002901
    33  H    0.227310   0.018852
    34  H    0.218991   0.013039
    35  H    0.196512   0.015955
    36  H    0.194811   0.002713
    37  H    0.193312   0.003246
 Sum of Mulliken charges =   1.00000   1.00000

 Dipole moment (field-independent basis, Debye):
    X=             -8.7299    Y=              0.6299    Z=              2.1492  Tot=              9.0126
 Quadrupole moment (field-independent basis, Debye-Ang):
   XX=           -125.2027   YY=           -125.2979   ZZ=           -141.4863
   XY=              0.7840   XZ=              2.8870   YZ=              4.3270

 Normal termination of Gaussian 09 at Sun Mar  3 18:00:52 2024.
