 Gaussian 09, Revision D.01,
 Gaussian 09:  ES64L-G09RevD.01 24-Apr-2013

 ----------------------------------------------------------------------
 #p CAM-B3LYP/6-31G(d,p) SCRF=(PCM,Solvent=Generic,Read) NoSymm out=wfn
 ----------------------------------------------------------------------

 ------------------
 Title A153226991_0
 ------------------
 Symbolic Z-matrix:
 Charge =  0 Multiplicity = 1

                          Input orientation:
 ---------------------------------------------------------------------
 Center     Atomic      Atomic             Coordinates (Angstroms)
 Number     Number       Type             X           Y           Z
 ---------------------------------------------------------------------
      1          6           0        3.160082    2.025656   -1.341611
      2          7           0        2.227387    1.074898   -0.759700
      3          6           0        2.731464    0.131002    0.106137
      4          8           0        3.932812    0.051732    0.365338
      5          7           0        1.796963   -0.685412    0.704017
      6          6           0        2.267479   -1.654194    1.680781
      7          6           0        0.441386   -0.503966    0.561903
      8          8           0       -0.356765   -1.094217    1.285241
      9          7           0        0.022558    0.359048   -0.410110
     10          6           0       -1.397790    0.626933   -0.605233
     11          9           0       -1.737164    1.690950    0.180663
     12          9           0       -1.551904    1.084139   -1.892246
     13          6           0       -2.499031   -0.470814   -0.445282
     14          9           0       -3.685577    0.049601   -0.919469
     15          8           0       -2.829709   -0.978711    0.846102
     16          6           0       -3.181292    0.019998    1.769425
     17          9           0       -3.996519    0.936992    1.222604
     18          9           0       -3.823707   -0.560664    2.802016
     19          9           0       -2.078431    0.626504    2.242875
     20          6           0       -2.129939   -1.612020   -1.394297
     21          9           0       -0.945322   -2.191744   -1.091090
     22          9           0       -2.031630   -1.201087   -2.680237
     23          9           0       -3.061328   -2.597878   -1.372539
     24          6           0        0.877340    1.334510   -0.878894
     25          8           0        0.482660    2.402785   -1.345789
     26          1           0        3.327571    2.832412   -0.620784
     27          1           0        4.116784    1.544096   -1.565285
     28          1           0        2.755854    2.450307   -2.265527
     29          1           0        2.340519   -1.155128    2.652324
     30          1           0        1.572171   -2.494901    1.763870
     31          1           0        3.253080   -2.040827    1.404793
 ---------------------------------------------------------------------

 SCF Done:  E(RCAM-B3LYP) =  -1709.80453989     A.U. after   13 cycles

 Alpha  occ. eigenvalues --  -24.83592 -24.83257 -24.82897 -24.82890 -24.82752
 Alpha  occ. eigenvalues --  -24.82370 -24.82298 -24.82271 -24.82101 -19.32026
 Alpha  occ. eigenvalues --  -19.23345 -19.23201 -19.22676 -14.52318 -14.49775
 Alpha  occ. eigenvalues --  -14.49653 -10.58891 -10.55344 -10.53171 -10.49093
 Alpha  occ. eigenvalues --  -10.45027 -10.45010 -10.43816 -10.30822 -10.30782
 Alpha  occ. eigenvalues --   -1.42349  -1.41768  -1.38445  -1.34741  -1.32779
 Alpha  occ. eigenvalues --   -1.32526  -1.32428  -1.32186  -1.31085  -1.21893
 Alpha  occ. eigenvalues --   -1.19731  -1.16917  -1.16379  -1.08810  -1.06495
 Alpha  occ. eigenvalues --   -1.05013  -0.93314  -0.85779  -0.82969  -0.82831
 Alpha  occ. eigenvalues --   -0.80538  -0.78902  -0.75745  -0.74807  -0.73045
 Alpha  occ. eigenvalues --   -0.71649  -0.71132  -0.69777  -0.69386  -0.68713
 Alpha  occ. eigenvalues --   -0.67469  -0.66226  -0.65877  -0.64752  -0.61976
 Alpha  occ. eigenvalues --   -0.59815  -0.59304  -0.57103  -0.56449  -0.56366
 Alpha  occ. eigenvalues --   -0.55803  -0.55607  -0.55354  -0.55170  -0.54790
 Alpha  occ. eigenvalues --   -0.54304  -0.54075  -0.53177  -0.53013  -0.52824
 Alpha  occ. eigenvalues --   -0.52381  -0.51835  -0.51354  -0.51014  -0.50794
 Alpha  occ. eigenvalues --   -0.50347  -0.49887  -0.49488  -0.48668  -0.48039
 Alpha  occ. eigenvalues --   -0.47797  -0.47557  -0.47496  -0.47218  -0.45564
 Alpha  occ. eigenvalues --   -0.43651  -0.39696  -0.39164  -0.37934  -0.36095
 Alpha  occ. eigenvalues --   -0.35208  -0.35115
 Alpha virt. eigenvalues --    0.01289   0.02567   0.05987   0.08539   0.12236
 Alpha virt. eigenvalues --    0.13810   0.15360   0.16932   0.17382   0.17414
 Alpha virt. eigenvalues --    0.18114   0.19862   0.20114   0.21868   0.22407

 Mulliken charges:
               1
     1  C   -0.180482
     2  N   -0.563698
     3  C    0.814284
     4  O   -0.521253
     5  N   -0.565228
     6  C   -0.182080
     7  C    0.828695
     8  O   -0.518937
     9  N   -0.616138
    10  C    0.776348
    11  F   -0.264221
    12  F   -0.272796
    13  C    0.413853
    14  F   -0.277011
    15  O   -0.490098
    16  C    0.998879
    17  F   -0.247115
    18  F   -0.243502
    19  F   -0.244416
    20  C    0.805766
    21  F   -0.240668
    22  F   -0.243742
    23  F   -0.250379
    24  C    0.820210
    25  O   -0.495608
    26  H    0.155684
    27  H    0.162038
    28  H    0.159841
    29  H    0.156447
    30  H    0.161847
    31  H    0.163481
 Sum of Mulliken charges =   0.00000

 Dipole moment (field-independent basis, Debye):
    X=              3.1001    Y=             -0.9579    Z=              0.0114  Tot=              3.2447
 Quadrupole moment (field-independent basis, Debye-Ang):
   XX=           -141.0588   YY=           -136.8267   ZZ=           -133.6575
   XY=              1.2590   XZ=             -2.3128   YZ=              1.1487

 Normal termination of Gaussian 09 at Sun Mar  3 17:24:27 2024.
