 Gaussian 09, Revision D.01,
 Gaussian 09:  ES64L-G09RevD.01 24-Apr-2013

 ----------------------------------------------------------------------
 #p CAM-B3LYP/6-31G(d,p) SCRF=(PCM,Solvent=Generic,Read) NoSymm out=wfn
 ----------------------------------------------------------------------

 -------------------
 Title A153226991_p1
 -------------------
 Symbolic Z-matrix:
 Charge =  1 Multiplicity = 2

                          Input orientation:
 ---------------------------------------------------------------------
 Center     Atomic      Atomic             Coordinates (Angstroms)
 Number     Number       Type             X           Y           Z
 ---------------------------------------------------------------------
      1          6           0        3.160082    2.025656   -1.341611
      2          7           0        2.227387    1.074898   -0.759700
      3          6           0        2.731464    0.131002    0.106137
      4          8           0        3.932812    0.051732    0.365338
      5          7           0        1.796963   -0.685412    0.704017
      6          6           0        2.267479   -1.654194    1.680781
      7          6           0        0.441386   -0.503966    0.561903
      8          8           0       -0.356765   -1.094217    1.285241
      9          7           0        0.022558    0.359048   -0.410110
     10          6           0       -1.397790    0.626933   -0.605233
     11          9           0       -1.737164    1.690950    0.180663
     12          9           0       -1.551904    1.084139   -1.892246
     13          6           0       -2.499031   -0.470814   -0.445282
     14          9           0       -3.685577    0.049601   -0.919469
     15          8           0       -2.829709   -0.978711    0.846102
     16          6           0       -3.181292    0.019998    1.769425
     17          9           0       -3.996519    0.936992    1.222604
     18          9           0       -3.823707   -0.560664    2.802016
     19          9           0       -2.078431    0.626504    2.242875
     20          6           0       -2.129939   -1.612020   -1.394297
     21          9           0       -0.945322   -2.191744   -1.091090
     22          9           0       -2.031630   -1.201087   -2.680237
     23          9           0       -3.061328   -2.597878   -1.372539
     24          6           0        0.877340    1.334510   -0.878894
     25          8           0        0.482660    2.402785   -1.345789
     26          1           0        3.327571    2.832412   -0.620784
     27          1           0        4.116784    1.544096   -1.565285
     28          1           0        2.755854    2.450307   -2.265527
     29          1           0        2.340519   -1.155128    2.652324
     30          1           0        1.572171   -2.494901    1.763870
     31          1           0        3.253080   -2.040827    1.404793
 ---------------------------------------------------------------------

 SCF Done:  E(UCAM-B3LYP) =  -1709.47623173     A.U. after   67 cycles

 Alpha  occ. eigenvalues --  -24.86675 -24.86590 -24.86349 -24.85776 -24.85142
 Alpha  occ. eigenvalues --  -24.85140 -24.85099 -24.85054 -24.85003 -19.42535
 Alpha  occ. eigenvalues --  -19.35020 -19.33871 -19.31084 -14.60583 -14.60351
 Alpha  occ. eigenvalues --  -14.59645 -10.61374 -10.58061 -10.57764 -10.55507
 Alpha  occ. eigenvalues --  -10.53558 -10.52490 -10.52376 -10.37142 -10.36956
 Alpha  occ. eigenvalues --   -1.44924  -1.44348  -1.42594  -1.37575  -1.35811
 Alpha  occ. eigenvalues --   -1.35387  -1.34938  -1.34585  -1.34386  -1.33799
 Alpha  occ. eigenvalues --   -1.28789  -1.25491  -1.22628  -1.18753  -1.15466
 Alpha  occ. eigenvalues --   -1.14486  -0.97126  -0.92430  -0.90699  -0.90449
 Alpha  occ. eigenvalues --   -0.84829  -0.83145  -0.83044  -0.82372  -0.78752
 Alpha  occ. eigenvalues --   -0.76149  -0.74677  -0.73196  -0.72315  -0.71573
 Alpha  occ. eigenvalues --   -0.71398  -0.70073  -0.69854  -0.69815  -0.68979
 Alpha  occ. eigenvalues --   -0.67866  -0.65656  -0.64357  -0.63566  -0.63246
 Alpha  occ. eigenvalues --   -0.62542  -0.62052  -0.61061  -0.59793  -0.59204
 Alpha  occ. eigenvalues --   -0.58899  -0.58438  -0.57710  -0.57452  -0.56941
 Alpha  occ. eigenvalues --   -0.56647  -0.55915  -0.55277  -0.55059  -0.54670
 Alpha  occ. eigenvalues --   -0.54451  -0.54416  -0.54181  -0.53749  -0.53459
 Alpha  occ. eigenvalues --   -0.53102  -0.52534  -0.51999  -0.51425  -0.51159
 Alpha  occ. eigenvalues --   -0.49432  -0.48161  -0.47570  -0.46896  -0.45620
 Alpha  occ. eigenvalues --   -0.44287  -0.43469
 Alpha virt. eigenvalues --   -0.08735  -0.05327   0.01574   0.02182   0.06923
 Alpha virt. eigenvalues --    0.08791   0.09490   0.10594   0.11481   0.12658
 Alpha virt. eigenvalues --    0.13858   0.14620   0.16384   0.16953   0.17238

  Beta  occ. eigenvalues --  -24.86657 -24.86589 -24.86341 -24.85776 -24.85140
  Beta  occ. eigenvalues --  -24.85139 -24.85098 -24.85054 -24.85003 -19.40873
  Beta  occ. eigenvalues --  -19.35011 -19.33377 -19.30934 -14.60326 -14.60087
  Beta  occ. eigenvalues --  -14.59598 -10.61375 -10.58061 -10.57768 -10.55729
  Beta  occ. eigenvalues --  -10.53626 -10.52535 -10.52375 -10.37133 -10.36948
  Beta  occ. eigenvalues --   -1.44920  -1.44346  -1.42572  -1.37572  -1.35792
  Beta  occ. eigenvalues --   -1.35381  -1.34934  -1.34585  -1.34382  -1.31669
  Beta  occ. eigenvalues --   -1.27593  -1.24965  -1.22595  -1.17601  -1.14989
  Beta  occ. eigenvalues --   -1.13893  -0.97089  -0.92298  -0.90444  -0.90066
  Beta  occ. eigenvalues --   -0.84604  -0.83126  -0.82622  -0.81840  -0.78631
  Beta  occ. eigenvalues --   -0.76069  -0.74648  -0.73154  -0.72304  -0.71431
  Beta  occ. eigenvalues --   -0.71043  -0.69977  -0.69541  -0.68934  -0.68218
  Beta  occ. eigenvalues --   -0.67761  -0.65171  -0.63314  -0.62992  -0.62733
  Beta  occ. eigenvalues --   -0.62207  -0.61601  -0.60277  -0.59705  -0.59107
  Beta  occ. eigenvalues --   -0.58473  -0.58360  -0.57474  -0.56924  -0.56506
  Beta  occ. eigenvalues --   -0.56280  -0.55553  -0.55029  -0.54676  -0.54396
  Beta  occ. eigenvalues --   -0.54290  -0.54071  -0.53704  -0.53353  -0.53091
  Beta  occ. eigenvalues --   -0.52528  -0.51994  -0.51361  -0.51148  -0.48924
  Beta  occ. eigenvalues --   -0.48482  -0.47022  -0.45680  -0.44694  -0.43148
  Beta  occ. eigenvalues --   -0.41329
  Beta virt. eigenvalues --   -0.29987  -0.07620  -0.05026   0.01974   0.02217
  Beta virt. eigenvalues --    0.07010   0.08888   0.09625   0.10759   0.11563
  Beta virt. eigenvalues --    0.12839   0.13872   0.14701   0.16432   0.17061

 Mulliken charges and spin densities:
               1          2
     1  C   -0.217862   0.001283
     2  N   -0.541678   0.124925
     3  C    0.918174  -0.125766
     4  O   -0.244035   0.638611
     5  N   -0.541468   0.125529
     6  C   -0.216745   0.003836
     7  C    0.873645  -0.026414
     8  O   -0.444064   0.058381
     9  N   -0.613537   0.022407
    10  C    0.776176  -0.001884
    11  F   -0.248911   0.002095
    12  F   -0.259377   0.004015
    13  C    0.413622   0.000044
    14  F   -0.264501   0.000101
    15  O   -0.486711   0.002985
    16  C    1.003927  -0.000233
    17  F   -0.241799   0.000038
    18  F   -0.236694   0.000016
    19  F   -0.247379   0.000508
    20  C    0.811390  -0.000031
    21  F   -0.243417   0.000197
    22  F   -0.238722   0.000048
    23  F   -0.241960   0.000015
    24  C    0.886866  -0.044488
    25  O   -0.380667   0.186675
    26  H    0.207902   0.008917
    27  H    0.195278  -0.001037
    28  H    0.208994   0.005007
    29  H    0.206241   0.009395
    30  H    0.207574  -0.000431
    31  H    0.199738   0.005257
 Sum of Mulliken charges =   1.00000   1.00000

 Dipole moment (field-independent basis, Debye):
    X=             12.7187    Y=              0.7188    Z=              0.1410  Tot=             12.7398
 Quadrupole moment (field-independent basis, Debye-Ang):
   XX=            -98.8196   YY=           -124.3569   ZZ=           -124.2410
   XY=              4.5541   XZ=             -0.8431   YZ=             -5.2176

 Normal termination of Gaussian 09 at Sun Mar  3 17:26:45 2024.
