 Gaussian 09, Revision D.01,
 Gaussian 09:  ES64L-G09RevD.01 24-Apr-2013

 ----------------------------------------------------------------------
 #p CAM-B3LYP/6-31G(d,p) SCRF=(PCM,Solvent=Generic,Read) NoSymm out=wfn
 ----------------------------------------------------------------------

 ------------------
 Title A153226971_0
 ------------------
 Symbolic Z-matrix:
 Charge =  0 Multiplicity = 1

                          Input orientation:
 ---------------------------------------------------------------------
 Center     Atomic      Atomic             Coordinates (Angstroms)
 Number     Number       Type             X           Y           Z
 ---------------------------------------------------------------------
      1          6           0       -0.375695   -3.133975    2.052127
      2          7           0       -0.162825   -1.870333    1.363958
      3          6           0        0.997518   -1.674781    0.648535
      4          8           0        1.944021   -2.454989    0.711316
      5          7           0        1.031590   -0.550268   -0.139657
      6          6           0        2.185669   -0.387332   -1.015925
      7          9           0        2.341466   -1.580178   -1.670927
      8          9           0        1.892469    0.470796   -2.036651
      9          6           0        3.554410    0.030555   -0.395767
     10          9           0        3.980669   -0.876848    0.530127
     11          8           0        4.644336    0.201651   -1.317891
     12          6           0        4.889367   -0.923976   -2.118268
     13          9           0        4.057729   -0.902714   -3.173680
     14          9           0        6.155429   -0.854764   -2.572243
     15          9           0        4.739531   -2.065953   -1.431517
     16          6           0        3.363307    1.361802    0.322473
     17          9           0        2.968559    2.347989   -0.508304
     18          9           0        2.452526    1.267653    1.321725
     19          9           0        4.519440    1.776920    0.900423
     20          6           0        0.165887    0.498241    0.047779
     21          8           0        0.317192    1.564529   -0.540552
     22          7           0       -0.862860    0.306693    0.934824
     23          6           0       -1.866523    1.358450    1.050190
     24          9           0       -1.225477    2.555590    1.170818
     25          9           0       -2.511260    1.227740    2.245484
     26          6           0       -2.896897    1.408384   -0.106149
     27          9           0       -2.245516    1.701659   -1.270073
     28          8           0       -3.451677    0.103248   -0.307041
     29          6           0       -4.564391    0.098982   -1.161839
     30          9           0       -4.341603    0.855704   -2.246808
     31          9           0       -4.792264   -1.167324   -1.556290
     32          9           0       -5.640063    0.545150   -0.495033
     33          6           0       -3.864669    2.543442    0.256747
     34          9           0       -4.604931    2.244550    1.347734
     35          9           0       -3.236233    3.713114    0.502781
     36          9           0       -4.739007    2.790245   -0.748849
     37          6           0       -1.178477   -0.938058    1.417121
     38          8           0       -2.289572   -1.223952    1.858863
     39          1           0       -0.661140   -2.931747    3.091469
     40          1           0       -1.203037   -3.663493    1.563486
     41          1           0        0.513001   -3.772402    2.041477
 ---------------------------------------------------------------------

 SCF Done:  E(RCAM-B3LYP) =  -2795.81540137     A.U. after   13 cycles

 Alpha  occ. eigenvalues --  -24.84420 -24.83822 -24.83688 -24.83602 -24.83502
 Alpha  occ. eigenvalues --  -24.83474 -24.83301 -24.83278 -24.83213 -24.83179
 Alpha  occ. eigenvalues --  -24.83138 -24.83072 -24.82981 -24.82922 -24.82891
 Alpha  occ. eigenvalues --  -24.82869 -24.82863 -24.82502 -19.33257 -19.33016
 Alpha  occ. eigenvalues --  -19.24293 -19.24177 -19.24126 -14.53444 -14.53175
 Alpha  occ. eigenvalues --  -14.50785 -10.59770 -10.59384 -10.55569 -10.55529
 Alpha  occ. eigenvalues --  -10.53885 -10.53649 -10.49205 -10.49166 -10.47054
 Alpha  occ. eigenvalues --  -10.45933 -10.45801 -10.31467  -1.43424  -1.42910
 Alpha  occ. eigenvalues --   -1.42079  -1.41896  -1.39300  -1.39113  -1.35894
 Alpha  occ. eigenvalues --   -1.35672  -1.33744  -1.33479  -1.33357  -1.33253
 Alpha  occ. eigenvalues --   -1.32931  -1.32869  -1.32284  -1.32275  -1.31781
 Alpha  occ. eigenvalues --   -1.31616  -1.23534  -1.20815  -1.20402  -1.18143
 Alpha  occ. eigenvalues --   -1.18020  -1.10231  -1.08823  -1.06774  -0.94112
 Alpha  occ. eigenvalues --   -0.93502  -0.87009  -0.84512  -0.84260  -0.82244
 Alpha  occ. eigenvalues --   -0.80869  -0.79810  -0.78598  -0.76074  -0.75956
 Alpha  occ. eigenvalues --   -0.74828  -0.73465  -0.73051  -0.72454  -0.71916
 Alpha  occ. eigenvalues --   -0.70732  -0.70529  -0.70146  -0.69412  -0.69127
 Alpha  occ. eigenvalues --   -0.68676  -0.68233  -0.67897  -0.67521  -0.66789
 Alpha  occ. eigenvalues --   -0.66618  -0.65680  -0.64945  -0.64381  -0.62704
 Alpha  occ. eigenvalues --   -0.60134  -0.60056  -0.58748  -0.57766  -0.57542
 Alpha  occ. eigenvalues --   -0.57287  -0.57051  -0.56949  -0.56558  -0.56319
 Alpha  occ. eigenvalues --   -0.56259  -0.56088  -0.55749  -0.55136  -0.55038
 Alpha  occ. eigenvalues --   -0.54911  -0.54746  -0.54492  -0.54431  -0.54136
 Alpha  occ. eigenvalues --   -0.53693  -0.53474  -0.53282  -0.53128  -0.52660
 Alpha  occ. eigenvalues --   -0.52549  -0.52413  -0.52239  -0.51685  -0.51567
 Alpha  occ. eigenvalues --   -0.50956  -0.50850  -0.50715  -0.50590  -0.50435
 Alpha  occ. eigenvalues --   -0.50099  -0.50043  -0.49784  -0.49287  -0.49104
 Alpha  occ. eigenvalues --   -0.48981  -0.48924  -0.48307  -0.47952  -0.46003
 Alpha  occ. eigenvalues --   -0.45807  -0.44843  -0.44723  -0.40461  -0.39734
 Alpha  occ. eigenvalues --   -0.39397  -0.38527  -0.36677  -0.35983
 Alpha virt. eigenvalues --    0.00123   0.00667   0.05257   0.06123   0.07160
 Alpha virt. eigenvalues --    0.08468   0.10862   0.13096   0.14737   0.16171
 Alpha virt. eigenvalues --    0.16304   0.17144   0.18485   0.19644   0.19851

 Mulliken charges:
               1
     1  C   -0.188309
     2  N   -0.575942
     3  C    0.829604
     4  O   -0.494272
     5  N   -0.646143
     6  C    0.758923
     7  F   -0.266658
     8  F   -0.244229
     9  C    0.438229
    10  F   -0.253586
    11  O   -0.515409
    12  C    1.000066
    13  F   -0.245030
    14  F   -0.240989
    15  F   -0.240633
    16  C    0.806056
    17  F   -0.234505
    18  F   -0.252817
    19  F   -0.251597
    20  C    0.844465
    21  O   -0.490708
    22  N   -0.654438
    23  C    0.761095
    24  F   -0.253525
    25  F   -0.252928
    26  C    0.436087
    27  F   -0.256154
    28  O   -0.506216
    29  C    0.996642
    30  F   -0.242401
    31  F   -0.239183
    32  F   -0.242353
    33  C    0.814890
    34  F   -0.245762
    35  F   -0.243035
    36  F   -0.258763
    37  C    0.844028
    38  O   -0.494172
    39  H    0.160969
    40  H    0.163603
    41  H    0.175100
 Sum of Mulliken charges =   0.00000

 Dipole moment (field-independent basis, Debye):
    X=             -0.6849    Y=             -2.6066    Z=              1.3735  Tot=              3.0249
 Quadrupole moment (field-independent basis, Debye-Ang):
   XX=           -213.1292   YY=           -201.1383   ZZ=           -198.6468
   XY=              3.3251   XZ=              5.0463   YZ=             -1.8574

 Normal termination of Gaussian 09 at Sun Mar  3 17:21:32 2024.
