 Gaussian 09, Revision D.01,
 Gaussian 09:  ES64L-G09RevD.01 24-Apr-2013

 ----------------------------------------------------------------------
 #p CAM-B3LYP/6-31G(d,p) SCRF=(PCM,Solvent=Generic,Read) NoSymm out=wfn
 ----------------------------------------------------------------------

 -------------------
 Title A153226971_p1
 -------------------
 Symbolic Z-matrix:
 Charge =  1 Multiplicity = 2

                          Input orientation:
 ---------------------------------------------------------------------
 Center     Atomic      Atomic             Coordinates (Angstroms)
 Number     Number       Type             X           Y           Z
 ---------------------------------------------------------------------
      1          6           0       -0.375695   -3.133975    2.052127
      2          7           0       -0.162825   -1.870333    1.363958
      3          6           0        0.997518   -1.674781    0.648535
      4          8           0        1.944021   -2.454989    0.711316
      5          7           0        1.031590   -0.550268   -0.139657
      6          6           0        2.185669   -0.387332   -1.015925
      7          9           0        2.341466   -1.580178   -1.670927
      8          9           0        1.892469    0.470796   -2.036651
      9          6           0        3.554410    0.030555   -0.395767
     10          9           0        3.980669   -0.876848    0.530127
     11          8           0        4.644336    0.201651   -1.317891
     12          6           0        4.889367   -0.923976   -2.118268
     13          9           0        4.057729   -0.902714   -3.173680
     14          9           0        6.155429   -0.854764   -2.572243
     15          9           0        4.739531   -2.065953   -1.431517
     16          6           0        3.363307    1.361802    0.322473
     17          9           0        2.968559    2.347989   -0.508304
     18          9           0        2.452526    1.267653    1.321725
     19          9           0        4.519440    1.776920    0.900423
     20          6           0        0.165887    0.498241    0.047779
     21          8           0        0.317192    1.564529   -0.540552
     22          7           0       -0.862860    0.306693    0.934824
     23          6           0       -1.866523    1.358450    1.050190
     24          9           0       -1.225477    2.555590    1.170818
     25          9           0       -2.511260    1.227740    2.245484
     26          6           0       -2.896897    1.408384   -0.106149
     27          9           0       -2.245516    1.701659   -1.270073
     28          8           0       -3.451677    0.103248   -0.307041
     29          6           0       -4.564391    0.098982   -1.161839
     30          9           0       -4.341603    0.855704   -2.246808
     31          9           0       -4.792264   -1.167324   -1.556290
     32          9           0       -5.640063    0.545150   -0.495033
     33          6           0       -3.864669    2.543442    0.256747
     34          9           0       -4.604931    2.244550    1.347734
     35          9           0       -3.236233    3.713114    0.502781
     36          9           0       -4.739007    2.790245   -0.748849
     37          6           0       -1.178477   -0.938058    1.417121
     38          8           0       -2.289572   -1.223952    1.858863
     39          1           0       -0.661140   -2.931747    3.091469
     40          1           0       -1.203037   -3.663493    1.563486
     41          1           0        0.513001   -3.772402    2.041477
 ---------------------------------------------------------------------

 SCF Done:  E(UCAM-B3LYP) =  -2795.48367707     A.U. after   50 cycles

 Alpha  occ. eigenvalues --  -24.87812 -24.87531 -24.87246 -24.87095 -24.87062
 Alpha  occ. eigenvalues --  -24.86363 -24.86183 -24.86026 -24.85944 -24.85944
 Alpha  occ. eigenvalues --  -24.85834 -24.85773 -24.85688 -24.85462 -24.85308
 Alpha  occ. eigenvalues --  -24.85173 -24.85112 -24.85015 -19.37501 -19.37442
 Alpha  occ. eigenvalues --  -19.36427 -19.35753 -19.30546 -14.68907 -14.60665
 Alpha  occ. eigenvalues --  -14.60484 -10.62235 -10.61627 -10.58538 -10.58371
 Alpha  occ. eigenvalues --  -10.58311 -10.58045 -10.56220 -10.56134 -10.53251
 Alpha  occ. eigenvalues --  -10.52620 -10.52603 -10.40795  -1.45731  -1.45400
 Alpha  occ. eigenvalues --   -1.44737  -1.44460  -1.43293  -1.43226  -1.39064
 Alpha  occ. eigenvalues --   -1.38981  -1.36436  -1.36291  -1.36025  -1.35937
 Alpha  occ. eigenvalues --   -1.35666  -1.35548  -1.34807  -1.34779  -1.34710
 Alpha  occ. eigenvalues --   -1.34447  -1.33978  -1.29441  -1.26377  -1.23898
 Alpha  occ. eigenvalues --   -1.23120  -1.21756  -1.16766  -1.16638  -0.98414
 Alpha  occ. eigenvalues --   -0.97307  -0.94900  -0.92927  -0.91341  -0.86042
 Alpha  occ. eigenvalues --   -0.85361  -0.84763  -0.83895  -0.83349  -0.80532
 Alpha  occ. eigenvalues --   -0.79391  -0.77258  -0.76349  -0.75860  -0.75130
 Alpha  occ. eigenvalues --   -0.74023  -0.73736  -0.73420  -0.73052  -0.72315
 Alpha  occ. eigenvalues --   -0.71770  -0.71508  -0.71325  -0.71076  -0.70465
 Alpha  occ. eigenvalues --   -0.70232  -0.69435  -0.69205  -0.69034  -0.68547
 Alpha  occ. eigenvalues --   -0.68429  -0.66084  -0.65172  -0.64519  -0.63708
 Alpha  occ. eigenvalues --   -0.62934  -0.62655  -0.61248  -0.60404  -0.60137
 Alpha  occ. eigenvalues --   -0.60039  -0.59909  -0.59740  -0.59459  -0.59275
 Alpha  occ. eigenvalues --   -0.58988  -0.58442  -0.58158  -0.57900  -0.57783
 Alpha  occ. eigenvalues --   -0.57594  -0.57369  -0.56950  -0.56818  -0.56526
 Alpha  occ. eigenvalues --   -0.56109  -0.55532  -0.55386  -0.55309  -0.55094
 Alpha  occ. eigenvalues --   -0.54926  -0.54491  -0.54455  -0.53861  -0.53620
 Alpha  occ. eigenvalues --   -0.53533  -0.53352  -0.52989  -0.52478  -0.52401
 Alpha  occ. eigenvalues --   -0.52106  -0.51950  -0.51944  -0.51524  -0.51308
 Alpha  occ. eigenvalues --   -0.51271  -0.49936  -0.49454  -0.49002  -0.48138
 Alpha  occ. eigenvalues --   -0.47821  -0.46886  -0.45083  -0.43612
 Alpha virt. eigenvalues --   -0.09872  -0.07463   0.00317   0.01087   0.02188
 Alpha virt. eigenvalues --    0.03320   0.05579   0.08120   0.08695   0.09612
 Alpha virt. eigenvalues --    0.10534   0.12520   0.13650   0.13915   0.14298

  Beta  occ. eigenvalues --  -24.87794 -24.87531 -24.87244 -24.87078 -24.87059
  Beta  occ. eigenvalues --  -24.86362 -24.86183 -24.86026 -24.85944 -24.85944
  Beta  occ. eigenvalues --  -24.85834 -24.85773 -24.85688 -24.85462 -24.85308
  Beta  occ. eigenvalues --  -24.85173 -24.85111 -24.85015 -19.36710 -19.36681
  Beta  occ. eigenvalues --  -19.36426 -19.35753 -19.30532 -14.67628 -14.60703
  Beta  occ. eigenvalues --  -14.60507 -10.62235 -10.61627 -10.58538 -10.58371
  Beta  occ. eigenvalues --  -10.58311 -10.58045 -10.56467 -10.56367 -10.53262
  Beta  occ. eigenvalues --  -10.52621 -10.52604 -10.40790  -1.45730  -1.45397
  Beta  occ. eigenvalues --   -1.44737  -1.44453  -1.43278  -1.43213  -1.39060
  Beta  occ. eigenvalues --   -1.38979  -1.36411  -1.36282  -1.36007  -1.35937
  Beta  occ. eigenvalues --   -1.35665  -1.35548  -1.34804  -1.34776  -1.34700
  Beta  occ. eigenvalues --   -1.34445  -1.32917  -1.28267  -1.25998  -1.23887
  Beta  occ. eigenvalues --   -1.23117  -1.19522  -1.16412  -1.16279  -0.98349
  Beta  occ. eigenvalues --   -0.97275  -0.94545  -0.92536  -0.91296  -0.85877
  Beta  occ. eigenvalues --   -0.85212  -0.84560  -0.83786  -0.83339  -0.80452
  Beta  occ. eigenvalues --   -0.79381  -0.77208  -0.76258  -0.75744  -0.75120
  Beta  occ. eigenvalues --   -0.73879  -0.73569  -0.73022  -0.72286  -0.71920
  Beta  occ. eigenvalues --   -0.71635  -0.71362  -0.71099  -0.70899  -0.70352
  Beta  occ. eigenvalues --   -0.70110  -0.69195  -0.69001  -0.68759  -0.68392
  Beta  occ. eigenvalues --   -0.68071  -0.65209  -0.64207  -0.63467  -0.63126
  Beta  occ. eigenvalues --   -0.62846  -0.62031  -0.61065  -0.60286  -0.60063
  Beta  occ. eigenvalues --   -0.59937  -0.59770  -0.59641  -0.59357  -0.59037
  Beta  occ. eigenvalues --   -0.58789  -0.58409  -0.58029  -0.57886  -0.57590
  Beta  occ. eigenvalues --   -0.57318  -0.57180  -0.56825  -0.56536  -0.56207
  Beta  occ. eigenvalues --   -0.56061  -0.55416  -0.55331  -0.55176  -0.54978
  Beta  occ. eigenvalues --   -0.54888  -0.54370  -0.54271  -0.53810  -0.53607
  Beta  occ. eigenvalues --   -0.53439  -0.53341  -0.52950  -0.52437  -0.52387
  Beta  occ. eigenvalues --   -0.51954  -0.51925  -0.51737  -0.51303  -0.49783
  Beta  occ. eigenvalues --   -0.49194  -0.48683  -0.48301  -0.48028  -0.47582
  Beta  occ. eigenvalues --   -0.46119  -0.44608  -0.43360
  Beta virt. eigenvalues --   -0.29906  -0.08590  -0.06156   0.00977   0.01211
  Beta virt. eigenvalues --    0.02220   0.03474   0.05686   0.08195   0.09072
  Beta virt. eigenvalues --    0.09815   0.10586   0.12644   0.13694   0.14182

 Mulliken charges and spin densities:
               1          2
     1  C   -0.230508   0.000299
     2  N   -0.440950   0.577608
     3  C    0.891615  -0.143546
     4  O   -0.337200   0.310615
     5  N   -0.651033  -0.009594
     6  C    0.759490  -0.000900
     7  F   -0.256353   0.003477
     8  F   -0.227879   0.000648
     9  C    0.439961  -0.000347
    10  F   -0.252464   0.000326
    11  O   -0.503143   0.000174
    12  C    1.004742  -0.000029
    13  F   -0.242612   0.000085
    14  F   -0.234709   0.000003
    15  F   -0.241527   0.000000
    16  C    0.811423  -0.000031
    17  F   -0.228912  -0.000026
    18  F   -0.255689   0.000038
    19  F   -0.242975  -0.000003
    20  C    0.874779  -0.004713
    21  O   -0.434714   0.005908
    22  N   -0.657685  -0.003702
    23  C    0.762505  -0.000658
    24  F   -0.237086   0.000705
    25  F   -0.243167   0.003706
    26  C    0.440836  -0.000116
    27  F   -0.249044   0.000096
    28  O   -0.519066   0.000136
    29  C    1.002928  -0.000004
    30  F   -0.237376   0.000015
    31  F   -0.236159   0.000000
    32  F   -0.237169   0.000021
    33  C    0.823232  -0.000099
    34  F   -0.242505   0.000044
    35  F   -0.238252   0.000004
    36  F   -0.251871   0.000035
    37  C    0.904735  -0.135106
    38  O   -0.338166   0.299334
    39  H    0.251494   0.042102
    40  H    0.260198   0.054406
    41  H    0.240277  -0.000909
 Sum of Mulliken charges =   1.00000   1.00000

 Dipole moment (field-independent basis, Debye):
    X=             -1.3916    Y=             -9.8318    Z=              6.6920  Tot=             11.9743
 Quadrupole moment (field-independent basis, Debye-Ang):
   XX=           -192.6364   YY=           -173.7900   ZZ=           -182.9313
   XY=              2.2675   XZ=             -0.4735   YZ=            -14.5597

 Normal termination of Gaussian 09 at Sun Mar  3 17:24:17 2024.
