 Gaussian 09, Revision D.01,
 Gaussian 09:  ES64L-G09RevD.01 24-Apr-2013

 ----------------------------------------------------------------------
 #p CAM-B3LYP/6-31G(d,p) SCRF=(PCM,Solvent=Generic,Read) NoSymm out=wfn
 ----------------------------------------------------------------------

 ------------------
 Title A584720881_0
 ------------------
 Symbolic Z-matrix:
 Charge =  0 Multiplicity = 1

                          Input orientation:
 ---------------------------------------------------------------------
 Center     Atomic      Atomic             Coordinates (Angstroms)
 Number     Number       Type             X           Y           Z
 ---------------------------------------------------------------------
      1          6           0        0.151297    4.775019   -0.294309
      2          6           0       -0.694119    3.812979    0.094254
      3          7           0       -0.410280    2.495304    0.492053
      4          6           0        0.866260    1.945724    0.381143
      5          8           0        1.795158    2.481124   -0.222661
      6          7           0        1.044810    0.693481    0.921873
      7          6           0        2.376932    0.098189    0.877114
      8          9           0        3.331195    1.069499    1.008883
      9          9           0        2.525507   -0.609427    2.048579
     10          6           0        2.775238   -0.844229   -0.296497
     11          9           0        1.893264   -1.883833   -0.370326
     12          8           0        4.046700   -1.426495    0.043270
     13          6           0        4.604942   -2.197988   -0.985611
     14          9           0        3.678387   -2.953443   -1.594349
     15          9           0        5.545673   -3.002360   -0.457406
     16          9           0        5.191641   -1.379960   -1.875458
     17          6           0        2.716969   -0.057263   -1.605506
     18          9           0        2.988340   -0.842357   -2.675511
     19          9           0        3.594095    0.963516   -1.636739
     20          9           0        1.472673    0.433544   -1.824716
     21          6           0       -0.002765   -0.127943    1.239127
     22          8           0        0.152845   -1.337918    1.361183
     23          7           0       -1.231333    0.461010    1.372307
     24          6           0       -2.350955   -0.369235    1.820393
     25          9           0       -1.882032   -1.150671    2.850433
     26          9           0       -3.283347    0.403405    2.450654
     27          6           0       -3.052228   -1.312484    0.800816
     28          9           0       -3.950502   -2.074082    1.505199
     29          8           0       -2.096381   -2.228068    0.257274
     30          6           0       -2.617482   -3.081585   -0.725855
     31          9           0       -2.641072   -2.420507   -1.896321
     32          9           0       -1.803341   -4.144793   -0.851965
     33          9           0       -3.849433   -3.508682   -0.412894
     34          6           0       -3.810929   -0.459939   -0.217237
     35          9           0       -4.659460    0.417229    0.351192
     36          9           0       -4.558867   -1.222002   -1.050592
     37          9           0       -2.944703    0.225645   -1.002166
     38          6           0       -1.497043    1.724228    0.908395
     39          8           0       -2.658594    2.127362    0.830129
     40          1           0       -0.234838    5.754840   -0.563759
     41          1           0        1.226833    4.662360   -0.360039
     42          1           0       -1.749052    4.090806    0.132578
 ---------------------------------------------------------------------

 SCF Done:  E(RCAM-B3LYP) =  -2833.86133122     A.U. after   13 cycles

 Alpha  occ. eigenvalues --  -24.84229 -24.83949 -24.83707 -24.83627 -24.83550
 Alpha  occ. eigenvalues --  -24.83516 -24.83478 -24.83471 -24.83359 -24.83227
 Alpha  occ. eigenvalues --  -24.83213 -24.83084 -24.83064 -24.83029 -24.82986
 Alpha  occ. eigenvalues --  -24.82835 -24.82384 -24.82192 -19.32960 -19.32933
 Alpha  occ. eigenvalues --  -19.24814 -19.24797 -19.24755 -14.53966 -14.53738
 Alpha  occ. eigenvalues --  -14.52767 -10.59563 -10.59530 -10.55780 -10.55694
 Alpha  occ. eigenvalues --  -10.54036 -10.53789 -10.49342 -10.49267 -10.47230
 Alpha  occ. eigenvalues --  -10.46858 -10.46839 -10.32511 -10.27312  -1.43279
 Alpha  occ. eigenvalues --   -1.43258  -1.42075  -1.42003  -1.39169  -1.38766
 Alpha  occ. eigenvalues --   -1.35668  -1.35419  -1.33533  -1.33471  -1.33435
 Alpha  occ. eigenvalues --   -1.33345  -1.33206  -1.33143  -1.32467  -1.32433
 Alpha  occ. eigenvalues --   -1.31459  -1.31195  -1.24031  -1.20676  -1.20382
 Alpha  occ. eigenvalues --   -1.18771  -1.18616  -1.10589  -1.09052  -1.08197
 Alpha  occ. eigenvalues --   -0.94258  -0.93446  -0.88211  -0.85522  -0.84420
 Alpha  occ. eigenvalues --   -0.82803  -0.82370  -0.80436  -0.79215  -0.77683
 Alpha  occ. eigenvalues --   -0.76167  -0.75585  -0.74137  -0.73070  -0.72815
 Alpha  occ. eigenvalues --   -0.71852  -0.71241  -0.70575  -0.70378  -0.69695
 Alpha  occ. eigenvalues --   -0.69622  -0.68901  -0.68775  -0.68258  -0.67759
 Alpha  occ. eigenvalues --   -0.67369  -0.66668  -0.66238  -0.65607  -0.64582
 Alpha  occ. eigenvalues --   -0.64195  -0.62859  -0.60323  -0.59986  -0.59383
 Alpha  occ. eigenvalues --   -0.58157  -0.57772  -0.57454  -0.57188  -0.57062
 Alpha  occ. eigenvalues --   -0.56703  -0.56417  -0.56101  -0.56026  -0.55896
 Alpha  occ. eigenvalues --   -0.55699  -0.55599  -0.55044  -0.54920  -0.54595
 Alpha  occ. eigenvalues --   -0.54082  -0.53890  -0.53737  -0.53321  -0.53126
 Alpha  occ. eigenvalues --   -0.53043  -0.52885  -0.52418  -0.52220  -0.52032
 Alpha  occ. eigenvalues --   -0.51922  -0.51478  -0.51263  -0.51067  -0.50923
 Alpha  occ. eigenvalues --   -0.50778  -0.50532  -0.50383  -0.50250  -0.49668
 Alpha  occ. eigenvalues --   -0.49503  -0.49347  -0.49147  -0.48932  -0.48716
 Alpha  occ. eigenvalues --   -0.46576  -0.46272  -0.46020  -0.44665  -0.44576
 Alpha  occ. eigenvalues --   -0.42757  -0.41310  -0.39325  -0.39178  -0.38607
 Alpha  occ. eigenvalues --   -0.36723  -0.32219
 Alpha virt. eigenvalues --   -0.00602  -0.00315   0.04192   0.05662   0.06252
 Alpha virt. eigenvalues --    0.06933   0.07954   0.11407   0.12917   0.14529
 Alpha virt. eigenvalues --    0.14782   0.15879   0.17488   0.19149   0.19642

 Mulliken charges:
               1
     1  C   -0.261894
     2  C    0.110359
     3  N   -0.611480
     4  C    0.838419
     5  O   -0.484578
     6  N   -0.640094
     7  C    0.756215
     8  F   -0.247323
     9  F   -0.267285
    10  C    0.435645
    11  F   -0.252321
    12  O   -0.513417
    13  C    0.997504
    14  F   -0.242791
    15  F   -0.238582
    16  F   -0.245750
    17  C    0.820118
    18  F   -0.254137
    19  F   -0.233614
    20  F   -0.253168
    21  C    0.851256
    22  O   -0.469445
    23  N   -0.654017
    24  C    0.745451
    25  F   -0.262549
    26  F   -0.244525
    27  C    0.436671
    28  F   -0.266195
    29  O   -0.501368
    30  C    0.996347
    31  F   -0.248556
    32  F   -0.236557
    33  F   -0.241975
    34  C    0.817868
    35  F   -0.234447
    36  F   -0.253930
    37  F   -0.251175
    38  C    0.848787
    39  O   -0.494159
    40  H    0.130898
    41  H    0.148141
    42  H    0.171650
 Sum of Mulliken charges =   0.00000

 Dipole moment (field-independent basis, Debye):
    X=             -0.3846    Y=              2.5412    Z=             -0.2354  Tot=              2.5809
 Quadrupole moment (field-independent basis, Debye-Ang):
   XX=           -217.0607   YY=           -200.7248   ZZ=           -207.5429
   XY=             -0.3310   XZ=              1.4766   YZ=              4.4586

 Normal termination of Gaussian 09 at Sun Mar  3 18:07:43 2024.
