 Gaussian 09, Revision D.01,
 Gaussian 09:  ES64L-G09RevD.01 24-Apr-2013

 ----------------------------------------------------------------------
 #p CAM-B3LYP/6-31G(d,p) SCRF=(PCM,Solvent=Generic,Read) NoSymm out=wfn
 ----------------------------------------------------------------------

 -------------------
 Title A584720881_p1
 -------------------
 Symbolic Z-matrix:
 Charge =  1 Multiplicity = 2

                          Input orientation:
 ---------------------------------------------------------------------
 Center     Atomic      Atomic             Coordinates (Angstroms)
 Number     Number       Type             X           Y           Z
 ---------------------------------------------------------------------
      1          6           0        0.151297    4.775019   -0.294309
      2          6           0       -0.694119    3.812979    0.094254
      3          7           0       -0.410280    2.495304    0.492053
      4          6           0        0.866260    1.945724    0.381143
      5          8           0        1.795158    2.481124   -0.222661
      6          7           0        1.044810    0.693481    0.921873
      7          6           0        2.376932    0.098189    0.877114
      8          9           0        3.331195    1.069499    1.008883
      9          9           0        2.525507   -0.609427    2.048579
     10          6           0        2.775238   -0.844229   -0.296497
     11          9           0        1.893264   -1.883833   -0.370326
     12          8           0        4.046700   -1.426495    0.043270
     13          6           0        4.604942   -2.197988   -0.985611
     14          9           0        3.678387   -2.953443   -1.594349
     15          9           0        5.545673   -3.002360   -0.457406
     16          9           0        5.191641   -1.379960   -1.875458
     17          6           0        2.716969   -0.057263   -1.605506
     18          9           0        2.988340   -0.842357   -2.675511
     19          9           0        3.594095    0.963516   -1.636739
     20          9           0        1.472673    0.433544   -1.824716
     21          6           0       -0.002765   -0.127943    1.239127
     22          8           0        0.152845   -1.337918    1.361183
     23          7           0       -1.231333    0.461010    1.372307
     24          6           0       -2.350955   -0.369235    1.820393
     25          9           0       -1.882032   -1.150671    2.850433
     26          9           0       -3.283347    0.403405    2.450654
     27          6           0       -3.052228   -1.312484    0.800816
     28          9           0       -3.950502   -2.074082    1.505199
     29          8           0       -2.096381   -2.228068    0.257274
     30          6           0       -2.617482   -3.081585   -0.725855
     31          9           0       -2.641072   -2.420507   -1.896321
     32          9           0       -1.803341   -4.144793   -0.851965
     33          9           0       -3.849433   -3.508682   -0.412894
     34          6           0       -3.810929   -0.459939   -0.217237
     35          9           0       -4.659460    0.417229    0.351192
     36          9           0       -4.558867   -1.222002   -1.050592
     37          9           0       -2.944703    0.225645   -1.002166
     38          6           0       -1.497043    1.724228    0.908395
     39          8           0       -2.658594    2.127362    0.830129
     40          1           0       -0.234838    5.754840   -0.563759
     41          1           0        1.226833    4.662360   -0.360039
     42          1           0       -1.749052    4.090806    0.132578
 ---------------------------------------------------------------------

 SCF Done:  E(UCAM-B3LYP) =  -2833.57234064     A.U. after   21 cycles

 Alpha  occ. eigenvalues --  -24.87182 -24.86736 -24.86560 -24.86372 -24.86117
 Alpha  occ. eigenvalues --  -24.85936 -24.85405 -24.85336 -24.85302 -24.85301
 Alpha  occ. eigenvalues --  -24.85296 -24.85210 -24.85208 -24.85179 -24.85113
 Alpha  occ. eigenvalues --  -24.84975 -24.84931 -24.84806 -19.35174 -19.35016
 Alpha  occ. eigenvalues --  -19.32599 -19.32277 -19.29430 -14.64904 -14.59214
 Alpha  occ. eigenvalues --  -14.59124 -10.61366 -10.61206 -10.58331 -10.58133
 Alpha  occ. eigenvalues --  -10.57433 -10.57292 -10.54282 -10.53987 -10.51949
 Alpha  occ. eigenvalues --  -10.51936 -10.51773 -10.48150 -10.43336  -1.45321
 Alpha  occ. eigenvalues --   -1.45251  -1.44202  -1.44201  -1.42244  -1.41984
 Alpha  occ. eigenvalues --   -1.38108  -1.37649  -1.36204  -1.35906  -1.35195
 Alpha  occ. eigenvalues --   -1.35185  -1.35143  -1.35043  -1.34600  -1.34423
 Alpha  occ. eigenvalues --   -1.34320  -1.34284  -1.30992  -1.25675  -1.24673
 Alpha  occ. eigenvalues --   -1.22796  -1.22440  -1.18473  -1.15516  -1.14492
 Alpha  occ. eigenvalues --   -1.02146  -0.97053  -0.96373  -0.90734  -0.89820
 Alpha  occ. eigenvalues --   -0.88607  -0.85517  -0.84920  -0.83252  -0.82461
 Alpha  occ. eigenvalues --   -0.81069  -0.78867  -0.78665  -0.76269  -0.75453
 Alpha  occ. eigenvalues --   -0.75027  -0.74385  -0.73591  -0.73024  -0.72536
 Alpha  occ. eigenvalues --   -0.71765  -0.71669  -0.71575  -0.71029  -0.70853
 Alpha  occ. eigenvalues --   -0.70775  -0.70423  -0.69481  -0.68775  -0.68677
 Alpha  occ. eigenvalues --   -0.68296  -0.67769  -0.67197  -0.65196  -0.63671
 Alpha  occ. eigenvalues --   -0.62708  -0.62516  -0.62067  -0.61739  -0.60958
 Alpha  occ. eigenvalues --   -0.59865  -0.59598  -0.59481  -0.59211  -0.59049
 Alpha  occ. eigenvalues --   -0.58563  -0.58529  -0.58453  -0.58190  -0.57893
 Alpha  occ. eigenvalues --   -0.57543  -0.57375  -0.57339  -0.56926  -0.56713
 Alpha  occ. eigenvalues --   -0.56190  -0.56093  -0.55427  -0.55154  -0.55141
 Alpha  occ. eigenvalues --   -0.54617  -0.54465  -0.54145  -0.53909  -0.53676
 Alpha  occ. eigenvalues --   -0.53504  -0.53269  -0.52992  -0.52931  -0.52602
 Alpha  occ. eigenvalues --   -0.52459  -0.52098  -0.51751  -0.51729  -0.51182
 Alpha  occ. eigenvalues --   -0.51122  -0.51082  -0.48765  -0.48650  -0.47398
 Alpha  occ. eigenvalues --   -0.46919  -0.46588  -0.46367  -0.46073  -0.44997
 Alpha  occ. eigenvalues --   -0.43758  -0.42018
 Alpha virt. eigenvalues --   -0.10242  -0.06923  -0.03988   0.02173   0.02453
 Alpha virt. eigenvalues --    0.02997   0.04094   0.05153   0.07061   0.08078
 Alpha virt. eigenvalues --    0.10315   0.12068   0.12557   0.12884   0.13814

  Beta  occ. eigenvalues --  -24.87180 -24.86735 -24.86559 -24.86371 -24.86117
  Beta  occ. eigenvalues --  -24.85936 -24.85404 -24.85336 -24.85302 -24.85301
  Beta  occ. eigenvalues --  -24.85295 -24.85210 -24.85208 -24.85179 -24.85113
  Beta  occ. eigenvalues --  -24.84975 -24.84931 -24.84806 -19.35173 -19.35015
  Beta  occ. eigenvalues --  -19.32461 -19.32115 -19.29408 -14.64389 -14.59210
  Beta  occ. eigenvalues --  -14.59113 -10.61366 -10.61206 -10.58331 -10.58133
  Beta  occ. eigenvalues --  -10.57434 -10.57293 -10.54341 -10.54058 -10.51948
  Beta  occ. eigenvalues --  -10.51935 -10.51781 -10.47862 -10.42540  -1.45320
  Beta  occ. eigenvalues --   -1.45251  -1.44201  -1.44200  -1.42242  -1.41982
  Beta  occ. eigenvalues --   -1.38107  -1.37648  -1.36202  -1.35904  -1.35194
  Beta  occ. eigenvalues --   -1.35184  -1.35143  -1.35043  -1.34599  -1.34422
  Beta  occ. eigenvalues --   -1.34319  -1.34283  -1.30640  -1.25485  -1.24506
  Beta  occ. eigenvalues --   -1.22792  -1.22439  -1.17737  -1.15355  -1.14415
  Beta  occ. eigenvalues --   -0.99949  -0.96824  -0.96364  -0.90484  -0.89729
  Beta  occ. eigenvalues --   -0.88096  -0.85486  -0.84872  -0.83165  -0.82396
  Beta  occ. eigenvalues --   -0.80905  -0.78752  -0.78537  -0.76157  -0.75422
  Beta  occ. eigenvalues --   -0.75002  -0.74368  -0.73515  -0.72997  -0.72418
  Beta  occ. eigenvalues --   -0.71659  -0.71597  -0.71459  -0.70927  -0.70795
  Beta  occ. eigenvalues --   -0.70657  -0.70004  -0.69336  -0.68752  -0.68598
  Beta  occ. eigenvalues --   -0.67867  -0.67694  -0.67158  -0.64543  -0.63492
  Beta  occ. eigenvalues --   -0.62536  -0.62406  -0.61638  -0.61201  -0.60792
  Beta  occ. eigenvalues --   -0.59818  -0.59554  -0.59429  -0.59165  -0.59022
  Beta  occ. eigenvalues --   -0.58548  -0.58468  -0.58262  -0.58153  -0.57845
  Beta  occ. eigenvalues --   -0.57420  -0.57343  -0.57168  -0.56849  -0.56591
  Beta  occ. eigenvalues --   -0.56161  -0.56067  -0.55314  -0.55150  -0.55107
  Beta  occ. eigenvalues --   -0.54612  -0.54438  -0.54135  -0.53770  -0.53658
  Beta  occ. eigenvalues --   -0.53330  -0.53150  -0.52984  -0.52862  -0.52492
  Beta  occ. eigenvalues --   -0.52267  -0.51854  -0.51726  -0.51289  -0.51147
  Beta  occ. eigenvalues --   -0.51117  -0.49624  -0.48637  -0.48515  -0.47255
  Beta  occ. eigenvalues --   -0.46824  -0.46311  -0.46159  -0.44664  -0.43434
  Beta  occ. eigenvalues --   -0.41948
  Beta virt. eigenvalues --   -0.25603  -0.07067  -0.06378  -0.02118   0.02234
  Beta virt. eigenvalues --    0.02952   0.03208   0.04652   0.05159   0.07357
  Beta virt. eigenvalues --    0.08361   0.10411   0.12141   0.12746   0.13370

 Mulliken charges and spin densities:
               1          2
     1  C   -0.097887   0.560331
     2  C    0.252930   0.218767
     3  N   -0.586647   0.211432
     4  C    0.875944  -0.032804
     5  O   -0.434863   0.056210
     6  N   -0.643264   0.005023
     7  C    0.758202  -0.000227
     8  F   -0.241166   0.000112
     9  F   -0.255993   0.000083
    10  C    0.441967   0.000226
    11  F   -0.247838   0.000088
    12  O   -0.508829   0.000040
    13  C    1.001233   0.000015
    14  F   -0.240974   0.000004
    15  F   -0.234784   0.000009
    16  F   -0.244025   0.000002
    17  C    0.820292  -0.000021
    18  F   -0.247319   0.000013
    19  F   -0.231528   0.000052
    20  F   -0.258194   0.000311
    21  C    0.872389  -0.004365
    22  O   -0.430472   0.008431
    23  N   -0.657520   0.003150
    24  C    0.747056  -0.000264
    25  F   -0.251897   0.000098
    26  F   -0.237873   0.000180
    27  C    0.443988   0.000131
    28  F   -0.257214   0.000109
    29  O   -0.503527   0.000020
    30  C    1.000213   0.000006
    31  F   -0.247909   0.000002
    32  F   -0.233043   0.000000
    33  F   -0.238619   0.000002
    34  C    0.818168  -0.000012
    35  F   -0.232529   0.000053
    36  F   -0.247313   0.000016
    37  F   -0.255498   0.000258
    38  C    0.888812  -0.037148
    39  O   -0.433781   0.065185
    40  H    0.250649  -0.024877
    41  H    0.254115  -0.021796
    42  H    0.274551  -0.008844
 Sum of Mulliken charges =   1.00000   1.00000

 Dipole moment (field-independent basis, Debye):
    X=             -1.4735    Y=             17.9950    Z=              0.3880  Tot=             18.0594
 Quadrupole moment (field-independent basis, Debye-Ang):
   XX=           -203.6264   YY=           -125.8196   ZZ=           -201.0730
   XY=             -3.5130   XZ=             -0.3833   YZ=              2.5421

 Normal termination of Gaussian 09 at Sun Mar  3 18:09:05 2024.
