 Gaussian 09, Revision D.01,
 Gaussian 09:  ES64L-G09RevD.01 24-Apr-2013

 ----------------------------------------------------------------------
 #p CAM-B3LYP/6-31G(d,p) opt SCRF=(PCM,Solvent=Generic,Read) NoSymm out
 =wfn
 ----------------------------------------------------------------------

 ----------------
 Title EHOPA1_neu
 ----------------
 Symbolic Z-matrix:
 Charge =  0 Multiplicity = 1

 SCF Done:  E(RCAM-B3LYP) =  -2167.58259866     A.U. after   13 cycles
 SCF Done:  E(RCAM-B3LYP) =  -2167.60297153     A.U. after   12 cycles
 SCF Done:  E(RCAM-B3LYP) =  -2167.61031924     A.U. after   12 cycles
 SCF Done:  E(RCAM-B3LYP) =  -2167.61282579     A.U. after   12 cycles
 SCF Done:  E(RCAM-B3LYP) =  -2167.61389688     A.U. after   12 cycles
 SCF Done:  E(RCAM-B3LYP) =  -2167.61525777     A.U. after   11 cycles
 SCF Done:  E(RCAM-B3LYP) =  -2167.61562791     A.U. after   12 cycles
 SCF Done:  E(RCAM-B3LYP) =  -2167.61681513     A.U. after   12 cycles
 SCF Done:  E(RCAM-B3LYP) =  -2167.61749970     A.U. after   12 cycles
 SCF Done:  E(RCAM-B3LYP) =  -2167.61735868     A.U. after   12 cycles
 SCF Done:  E(RCAM-B3LYP) =  -2167.61822798     A.U. after   10 cycles
 SCF Done:  E(RCAM-B3LYP) =  -2167.61821173     A.U. after   11 cycles
 SCF Done:  E(RCAM-B3LYP) =  -2167.61823948     A.U. after   11 cycles
 SCF Done:  E(RCAM-B3LYP) =  -2167.61823805     A.U. after   10 cycles
 SCF Done:  E(RCAM-B3LYP) =  -2167.61824178     A.U. after   11 cycles
 SCF Done:  E(RCAM-B3LYP) =  -2167.61823642     A.U. after   10 cycles
 SCF Done:  E(RCAM-B3LYP) =  -2167.61823932     A.U. after   11 cycles
 SCF Done:  E(RCAM-B3LYP) =  -2167.61824208     A.U. after    9 cycles
 SCF Done:  E(RCAM-B3LYP) =  -2167.61824212     A.U. after    7 cycles
 SCF Done:  E(RCAM-B3LYP) =  -2167.61824214     A.U. after    6 cycles
 Optimization completed.
    -- Stationary point found.

                          Input orientation:
 ---------------------------------------------------------------------
 Center     Atomic      Atomic             Coordinates (Angstroms)
 Number     Number       Type             X           Y           Z
 ---------------------------------------------------------------------
      1          6           0       -5.402503    2.788533    2.401283
      2          6           0       -5.046086    1.327094    2.146206
      3          6           0       -3.669062    1.162691    1.499444
      4          6           0       -3.212228   -0.290394    1.276925
      5          6           0       -3.502651   -0.916503   -0.099969
      6          6           0       -4.981360   -0.951211   -0.506509
      7          6           0       -5.851804   -1.838918    0.379052
      8          6           0       -2.684733   -0.241396   -1.204555
      9          8           0       -1.288010   -0.249266   -0.944451
     10          6           0       -0.601691   -1.414902   -1.377293
     11          6           0       -0.257433   -1.367692   -2.866164
     12          6           0        0.243482    0.014381   -3.294547
     13          7           0        1.200086    0.574456   -2.353874
     14          6           0        2.518925    0.373256   -2.478944
     15          6           0        3.361417    0.913867   -1.301779
     16          9           0        2.599618    1.683027   -0.474402
     17          9           0        4.365335    1.662112   -1.787681
     18          6           0        3.926626   -0.220565   -0.435491
     19          9           0        2.845209   -1.009120   -0.116616
     20          8           0        4.850142   -0.957848   -1.155046
     21          6           0        5.661968   -1.707942   -0.322746
     22          9           0        6.935410   -1.508479   -0.658665
     23          9           0        5.392917   -3.008597   -0.455995
     24          6           0        5.378254   -1.222513    1.123342
     25          9           0        4.597882   -2.102908    1.761442
     26          9           0        6.525643   -1.075981    1.813177
     27          6           0        4.608525    0.101492    0.927714
     28          6           0        5.560045    1.314258    0.932821
     29          9           0        4.826469    2.439360    0.768391
     30          6           0        6.400696    1.525758    2.210682
     31          8           0        5.651464    1.433389    3.304636
     32          8           0        7.565462    1.800578    2.170991
     33          9           0        6.412473    1.183052   -0.100220
     34          9           0        3.670129    0.275450    1.888367
     35          8           0        3.085127   -0.177545   -3.404778
     36          1           0       -4.665991    3.265273    3.056019
     37          1           0       -5.427489    3.357466    1.466291
     38          1           0       -6.382719    2.886428    2.875777
     39          1           0       -5.818876    0.870589    1.519274
     40          1           0       -5.060758    0.775825    3.094685
     41          1           0       -3.648520    1.720916    0.555106
     42          1           0       -2.937241    1.663189    2.144412
     43          1           0       -3.644455   -0.924931    2.059061
     44          1           0       -2.128522   -0.343976    1.412213
     45          1           0       -3.161547   -1.960383   -0.044114
     46          1           0       -5.384361    0.068533   -0.525209
     47          1           0       -5.049837   -1.315251   -1.539299
     48          1           0       -5.868761   -1.492716    1.415289
     49          1           0       -6.884671   -1.857695    0.020964
     50          1           0       -5.482188   -2.869256    0.381161
     51          1           0       -2.898167   -0.721786   -2.169021
     52          1           0       -2.969985    0.810971   -1.301871
     53          1           0       -1.170382   -2.322508   -1.140900
     54          1           0        0.320153   -1.444778   -0.791388
     55          1           0        0.509173   -2.123564   -3.065191
     56          1           0       -1.123635   -1.625191   -3.484546
     57          1           0        0.727954   -0.037572   -4.270079
     58          1           0       -0.591509    0.713347   -3.363386
     59          1           0        0.837495    0.975570   -1.500738
     60          1           0        6.219097    1.620528    4.071507
 ---------------------------------------------------------------------

 Alpha  occ. eigenvalues --  -24.83611 -24.82918 -24.82228 -24.82183 -24.82114
 Alpha  occ. eigenvalues --  -24.81998 -24.81711 -24.81643 -24.81633 -24.81145
 Alpha  occ. eigenvalues --  -19.31231 -19.30458 -19.24908 -19.22694 -19.20626
 Alpha  occ. eigenvalues --  -14.44788 -10.51930 -10.48168 -10.47912 -10.46396
 Alpha  occ. eigenvalues --  -10.46129 -10.43556 -10.41881 -10.38570 -10.30763
 Alpha  occ. eigenvalues --  -10.30304 -10.30016 -10.26303 -10.25773 -10.25457
 Alpha  occ. eigenvalues --  -10.24847 -10.24717 -10.24631 -10.24512 -10.24274
 Alpha  occ. eigenvalues --   -1.40619  -1.38310  -1.38057  -1.37113  -1.35032
 Alpha  occ. eigenvalues --   -1.33291  -1.33052  -1.31715  -1.31553  -1.30876
 Alpha  occ. eigenvalues --   -1.22730  -1.21739  -1.13768  -1.13682  -1.11769
 Alpha  occ. eigenvalues --   -1.02379  -0.94723  -0.90522  -0.90277  -0.87100
 Alpha  occ. eigenvalues --   -0.86144  -0.85968  -0.82518  -0.81361  -0.79305
 Alpha  occ. eigenvalues --   -0.77520  -0.77044  -0.75137  -0.73761  -0.72661
 Alpha  occ. eigenvalues --   -0.71091  -0.70554  -0.70298  -0.68962  -0.68535
 Alpha  occ. eigenvalues --   -0.67917  -0.66723  -0.66581  -0.66111  -0.65784
 Alpha  occ. eigenvalues --   -0.65364  -0.65053  -0.64317  -0.63951  -0.63351
 Alpha  occ. eigenvalues --   -0.62195  -0.61337  -0.58359  -0.57932  -0.57311
 Alpha  occ. eigenvalues --   -0.56622  -0.56472  -0.55688  -0.55520  -0.55145
 Alpha  occ. eigenvalues --   -0.54867  -0.54519  -0.54184  -0.53962  -0.53608
 Alpha  occ. eigenvalues --   -0.53161  -0.52505  -0.52454  -0.52097  -0.51953
 Alpha  occ. eigenvalues --   -0.51485  -0.51185  -0.50981  -0.50867  -0.50591
 Alpha  occ. eigenvalues --   -0.50384  -0.50125  -0.49956  -0.49382  -0.48867
 Alpha  occ. eigenvalues --   -0.48832  -0.48307  -0.47910  -0.47463  -0.47103
 Alpha  occ. eigenvalues --   -0.46127  -0.45311  -0.45240  -0.44371  -0.44181
 Alpha  occ. eigenvalues --   -0.43668  -0.43124  -0.42756  -0.42294  -0.41685
 Alpha  occ. eigenvalues --   -0.41279  -0.41113  -0.40566  -0.40423  -0.39241
 Alpha  occ. eigenvalues --   -0.38214  -0.37511  -0.37333  -0.36513  -0.35992
 Alpha  occ. eigenvalues --   -0.33718  -0.32777  -0.31762
 Alpha virt. eigenvalues --    0.02270   0.04171   0.06377   0.10572   0.11188
 Alpha virt. eigenvalues --    0.11517   0.13365   0.13987   0.14112   0.15127
 Alpha virt. eigenvalues --    0.15304   0.16255   0.16614   0.17168   0.17798

 Mulliken charges:
               1
     1  C   -0.321485
     2  C   -0.178271
     3  C   -0.174186
     4  C   -0.184477
     5  C   -0.077831
     6  C   -0.180662
     7  C   -0.322263
     8  C    0.059044
     9  O   -0.513987
    10  C    0.041793
    11  C   -0.215067
    12  C   -0.050489
    13  N   -0.527128
    14  C    0.536217
    15  C    0.565253
    16  F   -0.291456
    17  F   -0.263030
    18  C    0.467210
    19  F   -0.293467
    20  O   -0.470811
    21  C    0.784213
    22  F   -0.239435
    23  F   -0.245329
    24  C    0.495556
    25  F   -0.255990
    26  F   -0.259865
    27  C    0.185127
    28  C    0.599547
    29  F   -0.271762
    30  C    0.538078
    31  O   -0.468291
    32  O   -0.432312
    33  F   -0.261268
    34  F   -0.283469
    35  O   -0.514837
    36  H    0.103433
    37  H    0.101840
    38  H    0.101550
    39  H    0.097678
    40  H    0.092841
    41  H    0.086852
    42  H    0.093771
    43  H    0.089467
    44  H    0.105795
    45  H    0.084322
    46  H    0.096790
    47  H    0.090541
    48  H    0.110427
    49  H    0.103995
    50  H    0.103092
    51  H    0.085548
    52  H    0.101993
    53  H    0.101720
    54  H    0.111478
    55  H    0.125087
    56  H    0.110586
    57  H    0.145249
    58  H    0.126383
    59  H    0.297397
    60  H    0.357290
 Sum of Mulliken charges =   0.00000

 Dipole moment (field-independent basis, Debye):
    X=             -5.4150    Y=             -0.3528    Z=              2.8534  Tot=              6.1309
 Quadrupole moment (field-independent basis, Debye-Ang):
   XX=           -221.1492   YY=           -198.7039   ZZ=           -192.2683
   XY=              0.8022   XZ=             29.5741   YZ=              3.5816

 Normal termination of Gaussian 09 at Wed Feb  5 02:04:29 2025.
