 Gaussian 09, Revision D.01,
 Gaussian 09:  ES64L-G09RevD.01 24-Apr-2013

 ----------------------------------------------------------------------
 #p CAM-B3LYP/6-31G(d,p) SCRF=(PCM,Solvent=Generic,Read) NoSymm out=wfn
 ----------------------------------------------------------------------

 -----------------
 Title A22933600_0
 -----------------
 Symbolic Z-matrix:
 Charge =  0 Multiplicity = 1

                          Input orientation:
 ---------------------------------------------------------------------
 Center     Atomic      Atomic             Coordinates (Angstroms)
 Number     Number       Type             X           Y           Z
 ---------------------------------------------------------------------
      1          6           0       -5.622681    1.575552   -0.072266
      2          6           0       -5.455917    0.263809    0.143129
      3          6           0       -4.796562   -0.680192   -0.824645
      4          7           0       -3.478651   -1.032447   -0.316035
      5          6           0       -2.397610   -0.275748   -0.744370
      6          8           0       -2.503032    0.634704   -1.566827
      7          6           0       -1.070738   -0.630488   -0.154961
      8          6           0       -0.026874    0.143929   -0.522776
      9          6           0        1.362845    0.058231   -0.113439
     10          6           0        2.306169    0.886094   -0.593279
     11          6           0        3.723550    0.843365   -0.200148
     12          6           0        4.448542    2.042069   -0.157074
     13          6           0        5.803886    2.044440    0.183128
     14          6           0        6.452154    0.846244    0.473247
     15          6           0        5.747395   -0.354118    0.418747
     16          6           0        4.391745   -0.356473    0.078707
     17          6           0       -0.977484   -1.780926    0.770825
     18          8           0        0.053795   -2.181677    1.296923
     19          7           0       -2.156748   -2.415400    1.022143
     20          6           0       -3.394826   -2.097772    0.554501
     21          8           0       -4.359390   -2.764743    0.925549
     22          1           0       -5.260025    2.054643   -0.977909
     23          1           0       -6.118609    2.202751    0.662323
     24          1           0       -5.837081   -0.173843    1.064074
     25          1           0       -5.416800   -1.577487   -0.931863
     26          1           0       -4.715036   -0.230118   -1.820641
     27          1           0       -0.219015    0.962078   -1.220699
     28          1           0        1.641767   -0.692097    0.620466
     29          1           0        2.047260    1.664195   -1.308244
     30          1           0        3.961590    2.988860   -0.379566
     31          1           0        6.351995    2.982172    0.220555
     32          1           0        7.506302    0.847079    0.737533
     33          1           0        6.252075   -1.291753    0.636683
     34          1           0        3.869434   -1.308793    0.026581
     35          1           0       -2.113428   -3.196141    1.661733
 ---------------------------------------------------------------------

 SCF Done:  E(RCAM-B3LYP) =  -952.869734116     A.U. after   14 cycles

 Alpha  occ. eigenvalues --  -19.21459 -19.21252 -19.21211 -14.47752 -14.46848
 Alpha  occ. eigenvalues --  -10.42488 -10.39653 -10.39580 -10.31050 -10.30417
 Alpha  occ. eigenvalues --  -10.29566 -10.29461 -10.28390 -10.27666 -10.27466
 Alpha  occ. eigenvalues --  -10.27418 -10.27243 -10.27172 -10.27141 -10.26637
 Alpha  occ. eigenvalues --  -10.25797  -1.17534  -1.13902  -1.13268  -1.05100
 Alpha  occ. eigenvalues --   -1.02514  -0.95334  -0.92280  -0.88486  -0.86940
 Alpha  occ. eigenvalues --   -0.83339  -0.82793  -0.78995  -0.77445  -0.74423
 Alpha  occ. eigenvalues --   -0.71833  -0.69498  -0.68379  -0.66109  -0.64347
 Alpha  occ. eigenvalues --   -0.62568  -0.61933  -0.59250  -0.57566  -0.55652
 Alpha  occ. eigenvalues --   -0.54960  -0.54034  -0.53351  -0.52951  -0.52119
 Alpha  occ. eigenvalues --   -0.51299  -0.50954  -0.50124  -0.49188  -0.48594
 Alpha  occ. eigenvalues --   -0.48259  -0.47858  -0.47564  -0.44684  -0.44309
 Alpha  occ. eigenvalues --   -0.44169  -0.42025  -0.41334  -0.41247  -0.40019
 Alpha  occ. eigenvalues --   -0.37148  -0.35852  -0.35287  -0.34326  -0.33893
 Alpha  occ. eigenvalues --   -0.32665  -0.32171  -0.31311  -0.28366
 Alpha virt. eigenvalues --   -0.05748   0.02819   0.03791   0.05214   0.06445
 Alpha virt. eigenvalues --    0.07246   0.11270   0.14284   0.14352   0.15606
 Alpha virt. eigenvalues --    0.16900   0.18273   0.18801   0.20022   0.20500

 Mulliken charges:
               1
     1  C   -0.233792
     2  C   -0.048911
     3  C   -0.109065
     4  N   -0.550915
     5  C    0.625428
     6  O   -0.516160
     7  C   -0.072685
     8  C   -0.099318
     9  C   -0.080744
    10  C   -0.106271
    11  C    0.082613
    12  C   -0.126650
    13  C   -0.097860
    14  C   -0.088424
    15  C   -0.099333
    16  C   -0.116953
    17  C    0.599820
    18  O   -0.510887
    19  N   -0.597647
    20  C    0.775423
    21  O   -0.518596
    22  H    0.116285
    23  H    0.109420
    24  H    0.113850
    25  H    0.152237
    26  H    0.149634
    27  H    0.147557
    28  H    0.141290
    29  H    0.120777
    30  H    0.103274
    31  H    0.105088
    32  H    0.104907
    33  H    0.106972
    34  H    0.112069
    35  H    0.307566
 Sum of Mulliken charges =   0.00000

 Dipole moment (field-independent basis, Debye):
    X=              3.1798    Y=              1.7917    Z=             -0.5022  Tot=              3.6842
 Quadrupole moment (field-independent basis, Debye-Ang):
   XX=           -109.5064   YY=           -117.8392   ZZ=           -123.4975
   XY=             -0.5206   XZ=              0.9263   YZ=              2.8242

 Normal termination of Gaussian 09 at Mon Mar  4 23:09:45 2024.
