 Gaussian 09, Revision D.01,
 Gaussian 09:  ES64L-G09RevD.01 24-Apr-2013

 ----------------------------------------------------------------------
 #p CAM-B3LYP/6-31G(d,p) SCRF=(PCM,Solvent=Generic,Read) NoSymm out=wfn
 ----------------------------------------------------------------------

 ------------------
 Title A22933600_p1
 ------------------
 Symbolic Z-matrix:
 Charge =  1 Multiplicity = 2

                          Input orientation:
 ---------------------------------------------------------------------
 Center     Atomic      Atomic             Coordinates (Angstroms)
 Number     Number       Type             X           Y           Z
 ---------------------------------------------------------------------
      1          6           0       -5.622681    1.575552   -0.072266
      2          6           0       -5.455917    0.263809    0.143129
      3          6           0       -4.796562   -0.680192   -0.824645
      4          7           0       -3.478651   -1.032447   -0.316035
      5          6           0       -2.397610   -0.275748   -0.744370
      6          8           0       -2.503032    0.634704   -1.566827
      7          6           0       -1.070738   -0.630488   -0.154961
      8          6           0       -0.026874    0.143929   -0.522776
      9          6           0        1.362845    0.058231   -0.113439
     10          6           0        2.306169    0.886094   -0.593279
     11          6           0        3.723550    0.843365   -0.200148
     12          6           0        4.448542    2.042069   -0.157074
     13          6           0        5.803886    2.044440    0.183128
     14          6           0        6.452154    0.846244    0.473247
     15          6           0        5.747395   -0.354118    0.418747
     16          6           0        4.391745   -0.356473    0.078707
     17          6           0       -0.977484   -1.780926    0.770825
     18          8           0        0.053795   -2.181677    1.296923
     19          7           0       -2.156748   -2.415400    1.022143
     20          6           0       -3.394826   -2.097772    0.554501
     21          8           0       -4.359390   -2.764743    0.925549
     22          1           0       -5.260025    2.054643   -0.977909
     23          1           0       -6.118609    2.202751    0.662323
     24          1           0       -5.837081   -0.173843    1.064074
     25          1           0       -5.416800   -1.577487   -0.931863
     26          1           0       -4.715036   -0.230118   -1.820641
     27          1           0       -0.219015    0.962078   -1.220699
     28          1           0        1.641767   -0.692097    0.620466
     29          1           0        2.047260    1.664195   -1.308244
     30          1           0        3.961590    2.988860   -0.379566
     31          1           0        6.351995    2.982172    0.220555
     32          1           0        7.506302    0.847079    0.737533
     33          1           0        6.252075   -1.291753    0.636683
     34          1           0        3.869434   -1.308793    0.026581
     35          1           0       -2.113428   -3.196141    1.661733
 ---------------------------------------------------------------------

 SCF Done:  E(UCAM-B3LYP) =  -952.601147890     A.U. after   27 cycles

 Alpha  occ. eigenvalues --  -19.29343 -19.29138 -19.27075 -14.54018 -14.53416
 Alpha  occ. eigenvalues --  -10.48348 -10.47380 -10.47016 -10.41516 -10.40858
 Alpha  occ. eigenvalues --  -10.40796 -10.40679 -10.39888 -10.38594 -10.38314
 Alpha  occ. eigenvalues --  -10.38198 -10.36789 -10.36764 -10.35108 -10.30630
 Alpha  occ. eigenvalues --  -10.29757  -1.24104  -1.21425  -1.20181  -1.11515
 Alpha  occ. eigenvalues --   -1.09006  -1.06554  -1.02879  -0.98886  -0.94078
 Alpha  occ. eigenvalues --   -0.93260  -0.91691  -0.86251  -0.84120  -0.81512
 Alpha  occ. eigenvalues --   -0.80788  -0.79056  -0.76655  -0.75449  -0.71977
 Alpha  occ. eigenvalues --   -0.71260  -0.68850  -0.67670  -0.64661  -0.64172
 Alpha  occ. eigenvalues --   -0.63743  -0.61763  -0.61191  -0.60717  -0.59958
 Alpha  occ. eigenvalues --   -0.58939  -0.58707  -0.58618  -0.57161  -0.56591
 Alpha  occ. eigenvalues --   -0.55944  -0.55634  -0.55187  -0.53901  -0.52973
 Alpha  occ. eigenvalues --   -0.51360  -0.51252  -0.50468  -0.48822  -0.46359
 Alpha  occ. eigenvalues --   -0.44410  -0.43597  -0.43326  -0.41923  -0.41139
 Alpha  occ. eigenvalues --   -0.40503  -0.39866  -0.39686  -0.36406
 Alpha virt. eigenvalues --   -0.15208  -0.07193  -0.05957  -0.02096  -0.01789
 Alpha virt. eigenvalues --    0.01915   0.02703   0.06426   0.06935   0.09091
 Alpha virt. eigenvalues --    0.10771   0.11850   0.12035   0.12368   0.12958

  Beta  occ. eigenvalues --  -19.29196 -19.28968 -19.27050 -14.54010 -14.53410
  Beta  occ. eigenvalues --  -10.48355 -10.47445 -10.47090 -10.41474 -10.40475
  Beta  occ. eigenvalues --  -10.40366 -10.40355 -10.40148 -10.38230 -10.38145
  Beta  occ. eigenvalues --  -10.38036 -10.36884 -10.36857 -10.35109 -10.30628
  Beta  occ. eigenvalues --  -10.29756  -1.24001  -1.21209  -1.19997  -1.11410
  Beta  occ. eigenvalues --   -1.08939  -1.05929  -1.02243  -0.98134  -0.93277
  Beta  occ. eigenvalues --   -0.92952  -0.91478  -0.86108  -0.84108  -0.81391
  Beta  occ. eigenvalues --   -0.80519  -0.78780  -0.76512  -0.75194  -0.71740
  Beta  occ. eigenvalues --   -0.71123  -0.68682  -0.67609  -0.64491  -0.63954
  Beta  occ. eigenvalues --   -0.63430  -0.61606  -0.60956  -0.60443  -0.59786
  Beta  occ. eigenvalues --   -0.58788  -0.58567  -0.58463  -0.57042  -0.56194
  Beta  occ. eigenvalues --   -0.55528  -0.54985  -0.53800  -0.53730  -0.52836
  Beta  occ. eigenvalues --   -0.51280  -0.50802  -0.48773  -0.48405  -0.46222
  Beta  occ. eigenvalues --   -0.43412  -0.43169  -0.41411  -0.41181  -0.40810
  Beta  occ. eigenvalues --   -0.39771  -0.39571  -0.36389
  Beta virt. eigenvalues --   -0.25298  -0.13910  -0.05418  -0.04907  -0.01566
  Beta virt. eigenvalues --   -0.00343   0.02212   0.03217   0.06530   0.07016
  Beta virt. eigenvalues --    0.09160   0.10923   0.12130   0.12659   0.12764

 Mulliken charges and spin densities:
               1          2
     1  C   -0.230070   0.000652
     2  C   -0.055503   0.000948
     3  C   -0.121248  -0.000494
     4  N   -0.550150   0.005153
     5  C    0.647252  -0.053153
     6  O   -0.476057   0.066837
     7  C   -0.002483   0.379020
     8  C   -0.112242  -0.226780
     9  C   -0.016510   0.322400
    10  C   -0.067735   0.015602
    11  C    0.095365   0.138176
    12  C   -0.084898   0.117390
    13  C   -0.085485  -0.080100
    14  C   -0.034672   0.274293
    15  C   -0.087433  -0.082546
    16  C   -0.080233   0.120048
    17  C    0.624764  -0.045619
    18  O   -0.483007   0.059680
    19  N   -0.596916   0.004430
    20  C    0.790527  -0.004909
    21  O   -0.484207   0.009762
    22  H    0.119916   0.000000
    23  H    0.122583  -0.000036
    24  H    0.123738   0.000010
    25  H    0.170359   0.000246
    26  H    0.161125  -0.000113
    27  H    0.184458   0.007314
    28  H    0.192383  -0.012208
    29  H    0.185261   0.001158
    30  H    0.160967  -0.005208
    31  H    0.163031   0.002357
    32  H    0.173663  -0.011018
    33  H    0.163450   0.002487
    34  H    0.161329  -0.005232
    35  H    0.328677  -0.000548
 Sum of Mulliken charges =   1.00000   1.00000

 Dipole moment (field-independent basis, Debye):
    X=             13.7226    Y=              2.8411    Z=             -0.4590  Tot=             14.0212
 Quadrupole moment (field-independent basis, Debye-Ang):
   XX=            -21.1952   YY=           -104.2215   ZZ=           -117.4841
   XY=             13.8673   XZ=              3.5715   YZ=              0.8472

 Normal termination of Gaussian 09 at Mon Mar  4 23:10:11 2024.
