 Gaussian 09, Revision D.01,
 Gaussian 09:  ES64L-G09RevD.01 24-Apr-2013

 ----------------------------------------------------------------------
 #p CAM-B3LYP/6-31G(d,p) SCRF=(PCM,Solvent=Generic,Read) NoSymm out=wfn
 ----------------------------------------------------------------------

 -------------------
 Title A458445982_p1
 -------------------
 Symbolic Z-matrix:
 Charge =  1 Multiplicity = 2

                          Input orientation:
 ---------------------------------------------------------------------
 Center     Atomic      Atomic             Coordinates (Angstroms)
 Number     Number       Type             X           Y           Z
 ---------------------------------------------------------------------
      1          7           0       -0.932988    1.202719    4.804804
      2          6           0       -0.127039    1.553458    4.046724
      3          6           0        0.886848    1.977292    3.064998
      4          7           0        0.665448    1.342391    1.765762
      5          6           0       -0.152828    1.974416    0.859124
      6          8           0       -0.798436    2.971569    1.169273
      7          7           0       -0.197161    1.413187   -0.391775
      8          6           0       -0.967109    2.116633   -1.414571
      9          9           0       -0.459407    1.814027   -2.642917
     10          9           0       -0.718520    3.451175   -1.292704
     11          6           0       -2.484194    1.837754   -1.378554
     12          9           0       -2.957545    2.074545   -0.121679
     13          8           0       -2.760244    0.472102   -1.716558
     14          6           0       -3.768616   -0.080933   -0.914551
     15          9           0       -3.270542   -0.300037    0.317174
     16          9           0       -4.837242    0.727016   -0.849890
     17          9           0       -4.142043   -1.259254   -1.444594
     18          6           0       -3.136856    2.795096   -2.372266
     19          9           0       -4.475275    2.592519   -2.442757
     20          9           0       -2.658998    2.630371   -3.626949
     21          9           0       -2.958774    4.092218   -2.040111
     22          6           0        0.111444    0.091819   -0.596838
     23          8           0       -0.141217   -0.472166   -1.656258
     24          7           0        0.727624   -0.570526    0.436950
     25          6           0        1.140733   -1.959828    0.263253
     26          9           0        0.902768   -2.581116    1.458915
     27          9           0        0.290169   -2.608898   -0.583171
     28          6           0        2.606126   -2.257277   -0.177659
     29          9           0        3.503813   -1.745372    0.714624
     30          8           0        2.954122   -3.640614   -0.348509
     31          6           0        2.704308   -4.430110    0.783860
     32          9           0        3.000110   -3.778294    1.917638
     33          9           0        3.468042   -5.536161    0.707140
     34          9           0        1.413533   -4.801934    0.782790
     35          6           0        2.846879   -1.564464   -1.514285
     36          9           0        4.115087   -1.767928   -1.951849
     37          9           0        2.022899   -2.006207   -2.485534
     38          9           0        2.691502   -0.220947   -1.414129
     39          6           0        1.171927    0.081083    1.560034
     40          8           0        1.975635   -0.418211    2.341575
     41          1           0        0.859284    3.066867    2.950188
     42          1           0        1.886737    1.722017    3.433282
 ---------------------------------------------------------------------

 SCF Done:  E(UCAM-B3LYP) =  -2887.65637716     A.U. after   61 cycles

 Alpha  occ. eigenvalues --  -24.89629 -24.89626 -24.89403 -24.88971 -24.88656
 Alpha  occ. eigenvalues --  -24.88433 -24.87269 -24.87157 -24.86545 -24.86437
 Alpha  occ. eigenvalues --  -24.86275 -24.86241 -24.86116 -24.85992 -24.85961
 Alpha  occ. eigenvalues --  -24.85603 -24.85552 -24.85383 -19.40117 -19.39363
 Alpha  occ. eigenvalues --  -19.37514 -19.36903 -19.36500 -14.63628 -14.63459
 Alpha  occ. eigenvalues --  -14.62339 -14.47690 -10.62843 -10.62108 -10.60163
 Alpha  occ. eigenvalues --  -10.60108 -10.59378 -10.58276 -10.58236 -10.57197
 Alpha  occ. eigenvalues --  -10.56505 -10.53910 -10.53673 -10.43397 -10.37103
 Alpha  occ. eigenvalues --   -1.46498  -1.46408  -1.45744  -1.45581  -1.44773
 Alpha  occ. eigenvalues --   -1.44153  -1.41351  -1.39955  -1.38383  -1.37855
 Alpha  occ. eigenvalues --   -1.37325  -1.36548  -1.36010  -1.35884  -1.35678
 Alpha  occ. eigenvalues --   -1.35285  -1.35219  -1.34910  -1.34740  -1.31441
 Alpha  occ. eigenvalues --   -1.30188  -1.24735  -1.23876  -1.22555  -1.18986
 Alpha  occ. eigenvalues --   -1.18115  -1.04772  -0.99815  -0.98596  -0.96027
 Alpha  occ. eigenvalues --   -0.93706  -0.92937  -0.87741  -0.87133  -0.85574
 Alpha  occ. eigenvalues --   -0.84652  -0.84190  -0.82068  -0.80553  -0.78532
 Alpha  occ. eigenvalues --   -0.77453  -0.76398  -0.76144  -0.75808  -0.74848
 Alpha  occ. eigenvalues --   -0.74238  -0.73507  -0.73114  -0.72689  -0.72471
 Alpha  occ. eigenvalues --   -0.72078  -0.71746  -0.71435  -0.71200  -0.70601
 Alpha  occ. eigenvalues --   -0.70436  -0.70129  -0.69855  -0.69649  -0.68771
 Alpha  occ. eigenvalues --   -0.67528  -0.66394  -0.65597  -0.64630  -0.64133
 Alpha  occ. eigenvalues --   -0.63571  -0.62588  -0.62397  -0.61735  -0.61110
 Alpha  occ. eigenvalues --   -0.60816  -0.60689  -0.60608  -0.59864  -0.59691
 Alpha  occ. eigenvalues --   -0.59638  -0.59419  -0.58685  -0.58591  -0.58437
 Alpha  occ. eigenvalues --   -0.58079  -0.57985  -0.57536  -0.57279  -0.56961
 Alpha  occ. eigenvalues --   -0.56656  -0.56492  -0.56164  -0.55783  -0.55243
 Alpha  occ. eigenvalues --   -0.55001  -0.54667  -0.54464  -0.54311  -0.54044
 Alpha  occ. eigenvalues --   -0.53994  -0.53909  -0.53475  -0.53363  -0.53068
 Alpha  occ. eigenvalues --   -0.52729  -0.52602  -0.52262  -0.52154  -0.52084
 Alpha  occ. eigenvalues --   -0.51029  -0.50732  -0.50235  -0.49998  -0.48919
 Alpha  occ. eigenvalues --   -0.48070  -0.47756  -0.46658  -0.46178  -0.45287
 Alpha virt. eigenvalues --   -0.10309  -0.10009  -0.01016  -0.00829   0.00268
 Alpha virt. eigenvalues --    0.00838   0.02806   0.03177   0.04364   0.07143
 Alpha virt. eigenvalues --    0.08416   0.10178   0.10882   0.12801   0.13145

  Beta  occ. eigenvalues --  -24.89591 -24.89564 -24.89354 -24.88964 -24.88656
  Beta  occ. eigenvalues --  -24.88408 -24.87256 -24.87155 -24.86545 -24.86437
  Beta  occ. eigenvalues --  -24.86275 -24.86241 -24.86116 -24.85992 -24.85961
  Beta  occ. eigenvalues --  -24.85602 -24.85552 -24.85383 -19.39065 -19.38458
  Beta  occ. eigenvalues --  -19.36900 -19.36835 -19.36500 -14.63548 -14.63394
  Beta  occ. eigenvalues --  -14.62189 -14.47690 -10.62843 -10.62108 -10.60168
  Beta  occ. eigenvalues --  -10.60114 -10.59378 -10.58347 -10.58276 -10.57290
  Beta  occ. eigenvalues --  -10.56583 -10.53911 -10.53673 -10.43392 -10.37099
  Beta  occ. eigenvalues --   -1.46470  -1.46383  -1.45700  -1.45570  -1.44723
  Beta  occ. eigenvalues --   -1.44140  -1.41335  -1.39926  -1.38278  -1.37764
  Beta  occ. eigenvalues --   -1.37313  -1.36548  -1.36009  -1.35884  -1.35666
  Beta  occ. eigenvalues --   -1.35282  -1.35208  -1.34760  -1.34162  -1.29874
  Beta  occ. eigenvalues --   -1.29041  -1.24722  -1.23872  -1.21250  -1.18503
  Beta  occ. eigenvalues --   -1.17496  -1.04758  -0.99789  -0.98558  -0.95851
  Beta  occ. eigenvalues --   -0.93429  -0.92545  -0.87388  -0.86791  -0.84999
  Beta  occ. eigenvalues --   -0.84477  -0.84181  -0.82022  -0.80520  -0.78483
  Beta  occ. eigenvalues --   -0.77437  -0.76339  -0.76105  -0.75745  -0.74807
  Beta  occ. eigenvalues --   -0.74207  -0.73444  -0.73033  -0.72643  -0.72453
  Beta  occ. eigenvalues --   -0.72037  -0.71690  -0.71410  -0.71158  -0.70573
  Beta  occ. eigenvalues --   -0.70333  -0.70079  -0.69732  -0.69589  -0.67786
  Beta  occ. eigenvalues --   -0.67144  -0.65461  -0.64669  -0.64426  -0.64064
  Beta  occ. eigenvalues --   -0.63382  -0.62363  -0.61930  -0.61525  -0.60829
  Beta  occ. eigenvalues --   -0.60709  -0.60599  -0.60542  -0.59825  -0.59555
  Beta  occ. eigenvalues --   -0.59505  -0.59134  -0.58601  -0.58404  -0.58358
  Beta  occ. eigenvalues --   -0.58046  -0.57940  -0.57482  -0.56916  -0.56681
  Beta  occ. eigenvalues --   -0.56458  -0.56226  -0.56081  -0.55748  -0.55169
  Beta  occ. eigenvalues --   -0.54925  -0.54638  -0.54369  -0.54254  -0.53949
  Beta  occ. eigenvalues --   -0.53897  -0.53411  -0.53140  -0.52733  -0.52654
  Beta  occ. eigenvalues --   -0.52280  -0.52209  -0.52090  -0.50599  -0.50531
  Beta  occ. eigenvalues --   -0.49836  -0.49137  -0.48065  -0.47634  -0.46795
  Beta  occ. eigenvalues --   -0.46401  -0.45695  -0.45259  -0.44675
  Beta virt. eigenvalues --   -0.32950  -0.10023  -0.09679  -0.00902  -0.00791
  Beta virt. eigenvalues --    0.00356   0.00869   0.02846   0.03211   0.04448
  Beta virt. eigenvalues --    0.07220   0.08476   0.10260   0.11000   0.13011

 Mulliken charges and spin densities:
               1          2
     1  N   -0.414822  -0.000026
     2  C    0.371020   0.003108
     3  C   -0.149540  -0.001724
     4  N   -0.573091   0.071263
     5  C    0.931814  -0.058450
     6  O   -0.322658   0.340788
     7  N   -0.649488   0.037383
     8  C    0.760442  -0.005095
     9  F   -0.226920   0.011899
    10  F   -0.231972   0.009038
    11  C    0.429717   0.000417
    12  F   -0.253057   0.001878
    13  O   -0.521630   0.000825
    14  C    1.021847  -0.000069
    15  F   -0.255601  -0.000016
    16  F   -0.237755   0.000075
    17  F   -0.229009   0.000001
    18  C    0.832266   0.000001
    19  F   -0.242196   0.000035
    20  F   -0.236876   0.000014
    21  F   -0.236846  -0.000001
    22  C    0.933232  -0.063107
    23  O   -0.307493   0.391870
    24  N   -0.650678   0.031005
    25  C    0.748485  -0.003979
    26  F   -0.242913   0.006404
    27  F   -0.221682   0.014849
    28  C    0.446556   0.000507
    29  F   -0.246332   0.003177
    30  O   -0.499234   0.000160
    31  C    1.006555  -0.000003
    32  F   -0.239560  -0.000002
    33  F   -0.231998  -0.000001
    34  F   -0.241383   0.000018
    35  C    0.809016  -0.000053
    36  F   -0.237475   0.000130
    37  F   -0.228584   0.000630
    38  F   -0.255803   0.000050
    39  C    0.929540  -0.049663
    40  O   -0.351612   0.256282
    41  H    0.256433   0.001440
    42  H    0.259285  -0.001057
 Sum of Mulliken charges =   1.00000   1.00000

 Dipole moment (field-independent basis, Debye):
    X=              3.9987    Y=              5.1687    Z=              1.9485  Tot=              6.8193
 Quadrupole moment (field-independent basis, Debye-Ang):
   XX=           -198.6665   YY=           -189.4922   ZZ=           -210.8091
   XY=              4.4181   XZ=             14.6287   YZ=              7.9570

 Normal termination of Gaussian 09 at Sun Mar  3 18:13:34 2024.
