 Gaussian 09, Revision D.01,
 Gaussian 09:  ES64L-G09RevD.01 24-Apr-2013

 ----------------------------------------------------------------------
 #p CAM-B3LYP/6-31G(d,p) SCRF=(PCM,Solvent=Generic,Read) NoSymm out=wfn
 ----------------------------------------------------------------------

 ------------------
 Title A458445982_0
 ------------------
 Symbolic Z-matrix:
 Charge =  0 Multiplicity = 1

                          Input orientation:
 ---------------------------------------------------------------------
 Center     Atomic      Atomic             Coordinates (Angstroms)
 Number     Number       Type             X           Y           Z
 ---------------------------------------------------------------------
      1          7           0       -0.932988    1.202719    4.804804
      2          6           0       -0.127039    1.553458    4.046724
      3          6           0        0.886848    1.977292    3.064998
      4          7           0        0.665448    1.342391    1.765762
      5          6           0       -0.152828    1.974416    0.859124
      6          8           0       -0.798436    2.971569    1.169273
      7          7           0       -0.197161    1.413187   -0.391775
      8          6           0       -0.967109    2.116633   -1.414571
      9          9           0       -0.459407    1.814027   -2.642917
     10          9           0       -0.718520    3.451175   -1.292704
     11          6           0       -2.484194    1.837754   -1.378554
     12          9           0       -2.957545    2.074545   -0.121679
     13          8           0       -2.760244    0.472102   -1.716558
     14          6           0       -3.768616   -0.080933   -0.914551
     15          9           0       -3.270542   -0.300037    0.317174
     16          9           0       -4.837242    0.727016   -0.849890
     17          9           0       -4.142043   -1.259254   -1.444594
     18          6           0       -3.136856    2.795096   -2.372266
     19          9           0       -4.475275    2.592519   -2.442757
     20          9           0       -2.658998    2.630371   -3.626949
     21          9           0       -2.958774    4.092218   -2.040111
     22          6           0        0.111444    0.091819   -0.596838
     23          8           0       -0.141217   -0.472166   -1.656258
     24          7           0        0.727624   -0.570526    0.436950
     25          6           0        1.140733   -1.959828    0.263253
     26          9           0        0.902768   -2.581116    1.458915
     27          9           0        0.290169   -2.608898   -0.583171
     28          6           0        2.606126   -2.257277   -0.177659
     29          9           0        3.503813   -1.745372    0.714624
     30          8           0        2.954122   -3.640614   -0.348509
     31          6           0        2.704308   -4.430110    0.783860
     32          9           0        3.000110   -3.778294    1.917638
     33          9           0        3.468042   -5.536161    0.707140
     34          9           0        1.413533   -4.801934    0.782790
     35          6           0        2.846879   -1.564464   -1.514285
     36          9           0        4.115087   -1.767928   -1.951849
     37          9           0        2.022899   -2.006207   -2.485534
     38          9           0        2.691502   -0.220947   -1.414129
     39          6           0        1.171927    0.081083    1.560034
     40          8           0        1.975635   -0.418211    2.341575
     41          1           0        0.859284    3.066867    2.950188
     42          1           0        1.886737    1.722017    3.433282
 ---------------------------------------------------------------------

 SCF Done:  E(RCAM-B3LYP) =  -2888.00706948     A.U. after   13 cycles

 Alpha  occ. eigenvalues --  -24.84717 -24.84714 -24.83863 -24.83811 -24.83703
 Alpha  occ. eigenvalues --  -24.83661 -24.83590 -24.83586 -24.83508 -24.83464
 Alpha  occ. eigenvalues --  -24.83427 -24.83304 -24.83242 -24.83217 -24.83159
 Alpha  occ. eigenvalues --  -24.83088 -24.82950 -24.82811 -19.33270 -19.33070
 Alpha  occ. eigenvalues --  -19.25473 -19.25457 -19.25044 -14.54332 -14.54096
 Alpha  occ. eigenvalues --  -14.52835 -14.43713 -10.59851 -10.59553 -10.55814
 Alpha  occ. eigenvalues --  -10.55250 -10.54385 -10.54158 -10.49614 -10.49493
 Alpha  occ. eigenvalues --  -10.47818 -10.47261 -10.47208 -10.37816 -10.33276
 Alpha  occ. eigenvalues --   -1.43352  -1.43114  -1.42355  -1.41891  -1.39808
 Alpha  occ. eigenvalues --   -1.39579  -1.37264  -1.35999  -1.33776  -1.33632
 Alpha  occ. eigenvalues --   -1.33440  -1.33208  -1.33068  -1.33027  -1.32573
 Alpha  occ. eigenvalues --   -1.32208  -1.32149  -1.32062  -1.24733  -1.20976
 Alpha  occ. eigenvalues --   -1.20679  -1.19367  -1.19269  -1.11306  -1.09774
 Alpha  occ. eigenvalues --   -1.08871  -1.00844  -0.94749  -0.94011  -0.89703
 Alpha  occ. eigenvalues --   -0.86532  -0.85290  -0.81617  -0.81124  -0.80703
 Alpha  occ. eigenvalues --   -0.80064  -0.77332  -0.76458  -0.75977  -0.74256
 Alpha  occ. eigenvalues --   -0.73144  -0.72548  -0.72096  -0.71370  -0.70900
 Alpha  occ. eigenvalues --   -0.70521  -0.69821  -0.69624  -0.69241  -0.68655
 Alpha  occ. eigenvalues --   -0.68175  -0.67936  -0.67251  -0.66788  -0.66174
 Alpha  occ. eigenvalues --   -0.66054  -0.65234  -0.64799  -0.62936  -0.60678
 Alpha  occ. eigenvalues --   -0.60573  -0.60073  -0.58165  -0.57873  -0.57516
 Alpha  occ. eigenvalues --   -0.57148  -0.57045  -0.56941  -0.56751  -0.56601
 Alpha  occ. eigenvalues --   -0.56427  -0.56043  -0.55673  -0.55565  -0.55204
 Alpha  occ. eigenvalues --   -0.55039  -0.54833  -0.54696  -0.54508  -0.54058
 Alpha  occ. eigenvalues --   -0.53724  -0.53670  -0.53566  -0.53209  -0.52921
 Alpha  occ. eigenvalues --   -0.52592  -0.52354  -0.52140  -0.51972  -0.51433
 Alpha  occ. eigenvalues --   -0.51303  -0.51120  -0.51017  -0.50622  -0.50558
 Alpha  occ. eigenvalues --   -0.50236  -0.50168  -0.50041  -0.49439  -0.49345
 Alpha  occ. eigenvalues --   -0.49253  -0.49165  -0.48655  -0.46120  -0.45873
 Alpha  occ. eigenvalues --   -0.45100  -0.43861  -0.43001  -0.41790  -0.41145
 Alpha  occ. eigenvalues --   -0.40623  -0.40448  -0.39190  -0.38936  -0.37134
 Alpha virt. eigenvalues --   -0.01018  -0.00311   0.04541   0.04744   0.05669
 Alpha virt. eigenvalues --    0.06553   0.06972   0.08284   0.10102   0.12830
 Alpha virt. eigenvalues --    0.13707   0.15497   0.16055   0.18191   0.18772

 Mulliken charges:
               1
     1  N   -0.449389
     2  C    0.356963
     3  C   -0.118324
     4  N   -0.582333
     5  C    0.845351
     6  O   -0.485457
     7  N   -0.654230
     8  C    0.772821
     9  F   -0.248576
    10  F   -0.253093
    11  C    0.426866
    12  F   -0.258748
    13  O   -0.517699
    14  C    1.014374
    15  F   -0.255181
    16  F   -0.245090
    17  F   -0.236632
    18  C    0.818613
    19  F   -0.251331
    20  F   -0.242891
    21  F   -0.242099
    22  C    0.848281
    23  O   -0.479172
    24  N   -0.652648
    25  C    0.759453
    26  F   -0.263100
    27  F   -0.240736
    28  C    0.437845
    29  F   -0.254395
    30  O   -0.514021
    31  C    1.000653
    32  F   -0.240349
    33  F   -0.239738
    34  F   -0.243915
    35  C    0.806909
    36  F   -0.249943
    37  F   -0.233315
    38  F   -0.254429
    39  C    0.852785
    40  O   -0.485297
    41  H    0.224114
    42  H    0.227104
 Sum of Mulliken charges =   0.00000

 Dipole moment (field-independent basis, Debye):
    X=              2.9638    Y=              2.1917    Z=             -0.4587  Tot=              3.7146
 Quadrupole moment (field-independent basis, Debye-Ang):
   XX=           -213.0369   YY=           -212.2270   ZZ=           -232.8877
   XY=             11.6860   XZ=              9.5103   YZ=              3.6421

 Normal termination of Gaussian 09 at Sun Mar  3 18:09:19 2024.
