 Gaussian 09, Revision D.01,
 Gaussian 09:  ES64L-G09RevD.01 24-Apr-2013

 ----------------------------------------------------------------------
 #p CAM-B3LYP/6-31G(d,p) SCRF=(PCM,Solvent=Generic,Read) NoSymm out=wfn
 ----------------------------------------------------------------------

 ------------------
 Title A543479931_0
 ------------------
 Symbolic Z-matrix:
 Charge =  0 Multiplicity = 1

                          Input orientation:
 ---------------------------------------------------------------------
 Center     Atomic      Atomic             Coordinates (Angstroms)
 Number     Number       Type             X           Y           Z
 ---------------------------------------------------------------------
      1          6           0       -1.341816   -1.692745   -3.959417
      2          6           0       -1.942832   -1.439244   -2.950792
      3          6           0       -2.674685   -1.128491   -1.710592
      4          7           0       -1.883493   -0.254270   -0.856087
      5          6           0       -1.993448    1.107180   -1.042206
      6          8           0       -2.812915    1.597471   -1.819599
      7          7           0       -1.110058    1.881671   -0.322096
      8          6           0       -1.130227    3.322806   -0.530955
      9          6           0       -2.027789    3.968779    0.441892
     10          6           0       -2.759321    4.494090    1.236703
     11          6           0       -0.192915    1.360955    0.564276
     12          8           0        0.706102    2.051684    1.041270
     13          7           0       -0.320379    0.027065    0.858943
     14          6           0        0.640834   -0.546560    1.790005
     15          9           0        0.763451    0.292827    2.858996
     16          9           0        0.101819   -1.672906    2.342554
     17          6           0        2.036454   -0.866688    1.192502
     18          9           0        2.643890    0.296825    0.816010
     19          8           0        1.883439   -1.617057   -0.017702
     20          6           0        3.087152   -2.155527   -0.494786
     21          9           0        4.076483   -1.250519   -0.443171
     22          9           0        3.409803   -3.238295    0.230051
     23          9           0        2.909908   -2.528878   -1.775764
     24          6           0        2.826438   -1.521149    2.334726
     25          9           0        2.326539   -2.732822    2.666036
     26          9           0        4.122753   -1.719400    1.990965
     27          9           0        2.848385   -0.772213    3.458565
     28          6           0       -1.009080   -0.832210    0.039014
     29          8           0       -0.846505   -2.051508    0.081892
     30          1           0       -0.809349   -1.920978   -4.854334
     31          1           0       -3.630721   -0.651040   -1.952882
     32          1           0       -2.911036   -2.055552   -1.175898
     33          1           0       -0.118874    3.731892   -0.429155
     34          1           0       -1.460398    3.552126   -1.550329
     35          1           0       -3.407610    4.962682    1.941362
 ---------------------------------------------------------------------

 SCF Done:  E(RCAM-B3LYP) =  -1861.99400402     A.U. after   13 cycles

 Alpha  occ. eigenvalues --  -24.83608 -24.83468 -24.83378 -24.83280 -24.82942
 Alpha  occ. eigenvalues --  -24.82676 -24.82666 -24.82664 -24.82660 -19.32972
 Alpha  occ. eigenvalues --  -19.23687 -19.23518 -19.23418 -14.52444 -14.50552
 Alpha  occ. eigenvalues --  -14.50515 -10.59545 -10.55316 -10.53150 -10.48892
 Alpha  occ. eigenvalues --  -10.45562 -10.45478 -10.44720 -10.34405 -10.34391
 Alpha  occ. eigenvalues --  -10.27608 -10.27573 -10.26818 -10.26778  -1.43194
 Alpha  occ. eigenvalues --   -1.41666  -1.38851  -1.35534  -1.33508  -1.33245
 Alpha  occ. eigenvalues --   -1.32675  -1.32058  -1.31365  -1.22351  -1.20531
 Alpha  occ. eigenvalues --   -1.17216  -1.17039  -1.09148  -1.07251  -1.06236
 Alpha  occ. eigenvalues --   -0.93477  -0.89571  -0.87406  -0.84451  -0.81980
 Alpha  occ. eigenvalues --   -0.81583  -0.81320  -0.78081  -0.76708  -0.75526
 Alpha  occ. eigenvalues --   -0.73740  -0.72971  -0.72116  -0.70432  -0.69817
 Alpha  occ. eigenvalues --   -0.68483  -0.68054  -0.67029  -0.66385  -0.64513
 Alpha  occ. eigenvalues --   -0.63560  -0.62919  -0.60516  -0.60359  -0.59853
 Alpha  occ. eigenvalues --   -0.57640  -0.57279  -0.57088  -0.56837  -0.56268
 Alpha  occ. eigenvalues --   -0.56038  -0.55655  -0.55415  -0.54812  -0.54784
 Alpha  occ. eigenvalues --   -0.54399  -0.53988  -0.53645  -0.53331  -0.52558
 Alpha  occ. eigenvalues --   -0.52223  -0.51883  -0.50894  -0.50593  -0.50504
 Alpha  occ. eigenvalues --   -0.50329  -0.50269  -0.49890  -0.49712  -0.49390
 Alpha  occ. eigenvalues --   -0.48842  -0.48458  -0.45707  -0.44516  -0.40019
 Alpha  occ. eigenvalues --   -0.39762  -0.38227  -0.37340  -0.37164  -0.35659
 Alpha  occ. eigenvalues --   -0.34890  -0.34849  -0.34277  -0.34147
 Alpha virt. eigenvalues --    0.01076   0.01871   0.05833   0.07787   0.08365
 Alpha virt. eigenvalues --    0.09597   0.09767   0.10050   0.12516   0.14300
 Alpha virt. eigenvalues --    0.15422   0.17294   0.17660   0.18115   0.18307

 Mulliken charges:
               1
     1  C   -0.419266
     2  C    0.274382
     3  C   -0.175133
     4  N   -0.567040
     5  C    0.836401
     6  O   -0.513263
     7  N   -0.565010
     8  C   -0.177668
     9  C    0.274733
    10  C   -0.419621
    11  C    0.832775
    12  O   -0.499905
    13  N   -0.639054
    14  C    0.761225
    15  F   -0.258102
    16  F   -0.255352
    17  C    0.437747
    18  F   -0.255742
    19  O   -0.505538
    20  C    0.996305
    21  F   -0.243565
    22  F   -0.243438
    23  F   -0.239481
    24  C    0.812348
    25  F   -0.246074
    26  F   -0.260190
    27  F   -0.244003
    28  C    0.848906
    29  O   -0.502844
    30  H    0.191397
    31  H    0.193664
    32  H    0.191220
    33  H    0.194229
    34  H    0.193218
    35  H    0.191737
 Sum of Mulliken charges =   0.00000

 Dipole moment (field-independent basis, Debye):
    X=             -1.7142    Y=              0.9929    Z=             -1.4805  Tot=              2.4732
 Quadrupole moment (field-independent basis, Debye-Ang):
   XX=           -153.9675   YY=           -157.1532   ZZ=           -152.9231
   XY=             -0.7193   XZ=            -10.0992   YZ=              4.4042

 Normal termination of Gaussian 09 at Sun Mar  3 18:08:26 2024.
