 Gaussian 09, Revision D.01,
 Gaussian 09:  ES64L-G09RevD.01 24-Apr-2013

 ----------------------------------------------------------------------
 #p CAM-B3LYP/6-31G(d,p) SCRF=(PCM,Solvent=Generic,Read) NoSymm out=wfn
 ----------------------------------------------------------------------

 -------------------
 Title A543479931_p1
 -------------------
 Symbolic Z-matrix:
 Charge =  1 Multiplicity = 2

                          Input orientation:
 ---------------------------------------------------------------------
 Center     Atomic      Atomic             Coordinates (Angstroms)
 Number     Number       Type             X           Y           Z
 ---------------------------------------------------------------------
      1          6           0       -1.341816   -1.692745   -3.959417
      2          6           0       -1.942832   -1.439244   -2.950792
      3          6           0       -2.674685   -1.128491   -1.710592
      4          7           0       -1.883493   -0.254270   -0.856087
      5          6           0       -1.993448    1.107180   -1.042206
      6          8           0       -2.812915    1.597471   -1.819599
      7          7           0       -1.110058    1.881671   -0.322096
      8          6           0       -1.130227    3.322806   -0.530955
      9          6           0       -2.027789    3.968779    0.441892
     10          6           0       -2.759321    4.494090    1.236703
     11          6           0       -0.192915    1.360955    0.564276
     12          8           0        0.706102    2.051684    1.041270
     13          7           0       -0.320379    0.027065    0.858943
     14          6           0        0.640834   -0.546560    1.790005
     15          9           0        0.763451    0.292827    2.858996
     16          9           0        0.101819   -1.672906    2.342554
     17          6           0        2.036454   -0.866688    1.192502
     18          9           0        2.643890    0.296825    0.816010
     19          8           0        1.883439   -1.617057   -0.017702
     20          6           0        3.087152   -2.155527   -0.494786
     21          9           0        4.076483   -1.250519   -0.443171
     22          9           0        3.409803   -3.238295    0.230051
     23          9           0        2.909908   -2.528878   -1.775764
     24          6           0        2.826438   -1.521149    2.334726
     25          9           0        2.326539   -2.732822    2.666036
     26          9           0        4.122753   -1.719400    1.990965
     27          9           0        2.848385   -0.772213    3.458565
     28          6           0       -1.009080   -0.832210    0.039014
     29          8           0       -0.846505   -2.051508    0.081892
     30          1           0       -0.809349   -1.920978   -4.854334
     31          1           0       -3.630721   -0.651040   -1.952882
     32          1           0       -2.911036   -2.055552   -1.175898
     33          1           0       -0.118874    3.731892   -0.429155
     34          1           0       -1.460398    3.552126   -1.550329
     35          1           0       -3.407610    4.962682    1.941362
 ---------------------------------------------------------------------

 SCF Done:  E(UCAM-B3LYP) =  -1861.67425616     A.U. after   45 cycles

 Alpha  occ. eigenvalues --  -24.85263 -24.85247 -24.85073 -24.85058 -24.84981
 Alpha  occ. eigenvalues --  -24.84832 -24.84744 -24.84496 -24.84171 -19.35024
 Alpha  occ. eigenvalues --  -19.29188 -19.27745 -19.27655 -14.56055 -14.55417
 Alpha  occ. eigenvalues --  -14.55387 -10.61322 -10.56984 -10.55724 -10.51007
 Alpha  occ. eigenvalues --  -10.49704 -10.49521 -10.49501 -10.40651 -10.40530
 Alpha  occ. eigenvalues --  -10.38066 -10.37692 -10.37521 -10.37163  -1.44882
 Alpha  occ. eigenvalues --   -1.43288  -1.41176  -1.37573  -1.35142  -1.34966
 Alpha  occ. eigenvalues --   -1.34445  -1.33594  -1.33516  -1.26672  -1.22635
 Alpha  occ. eigenvalues --   -1.21899  -1.21276  -1.13368  -1.11681  -1.11139
 Alpha  occ. eigenvalues --   -0.97236  -0.95674  -0.95345  -0.90463  -0.88766
 Alpha  occ. eigenvalues --   -0.87329  -0.83954  -0.81993  -0.81339  -0.78294
 Alpha  occ. eigenvalues --   -0.78119  -0.75175  -0.74359  -0.72509  -0.72027
 Alpha  occ. eigenvalues --   -0.70861  -0.70203  -0.69835  -0.69145  -0.68686
 Alpha  occ. eigenvalues --   -0.68357  -0.66926  -0.66469  -0.65944  -0.63892
 Alpha  occ. eigenvalues --   -0.63052  -0.61822  -0.60804  -0.60232  -0.59340
 Alpha  occ. eigenvalues --   -0.59012  -0.58732  -0.58578  -0.58003  -0.57715
 Alpha  occ. eigenvalues --   -0.57324  -0.56714  -0.56430  -0.56152  -0.55880
 Alpha  occ. eigenvalues --   -0.55462  -0.55391  -0.54694  -0.54089  -0.53835
 Alpha  occ. eigenvalues --   -0.52965  -0.52557  -0.52153  -0.51832  -0.51533
 Alpha  occ. eigenvalues --   -0.50660  -0.50435  -0.47869  -0.46612  -0.45571
 Alpha  occ. eigenvalues --   -0.44675  -0.44506  -0.44275  -0.43525  -0.43388
 Alpha  occ. eigenvalues --   -0.42047  -0.41581  -0.41271  -0.39964
 Alpha virt. eigenvalues --   -0.03290  -0.02243   0.00726   0.01171   0.01338
 Alpha virt. eigenvalues --    0.01665   0.03679   0.06347   0.08512   0.10875
 Alpha virt. eigenvalues --    0.11434   0.12469   0.13146   0.13631   0.14670

  Beta  occ. eigenvalues --  -24.85263 -24.85247 -24.85071 -24.85057 -24.84981
  Beta  occ. eigenvalues --  -24.84832 -24.84743 -24.84496 -24.84171 -19.35023
  Beta  occ. eigenvalues --  -19.28987 -19.27708 -19.27614 -14.56046 -14.55409
  Beta  occ. eigenvalues --  -14.55382 -10.61322 -10.56984 -10.55724 -10.51007
  Beta  occ. eigenvalues --  -10.49725 -10.49525 -10.49505 -10.40624 -10.40501
  Beta  occ. eigenvalues --  -10.37822 -10.37462 -10.37122 -10.36778  -1.44882
  Beta  occ. eigenvalues --   -1.43288  -1.41174  -1.37572  -1.35142  -1.34966
  Beta  occ. eigenvalues --   -1.34444  -1.33594  -1.33514  -1.26606  -1.22619
  Beta  occ. eigenvalues --   -1.21688  -1.21213  -1.13229  -1.11574  -1.11072
  Beta  occ. eigenvalues --   -0.96625  -0.95115  -0.94486  -0.89403  -0.88038
  Beta  occ. eigenvalues --   -0.87232  -0.83947  -0.81803  -0.81261  -0.78214
  Beta  occ. eigenvalues --   -0.78076  -0.75149  -0.74347  -0.72474  -0.72006
  Beta  occ. eigenvalues --   -0.70807  -0.70173  -0.69587  -0.68934  -0.68472
  Beta  occ. eigenvalues --   -0.68322  -0.66891  -0.66277  -0.65799  -0.63662
  Beta  occ. eigenvalues --   -0.62934  -0.61808  -0.60697  -0.59812  -0.59128
  Beta  occ. eigenvalues --   -0.58896  -0.58716  -0.58249  -0.57966  -0.57585
  Beta  occ. eigenvalues --   -0.57289  -0.56687  -0.56259  -0.55637  -0.55522
  Beta  occ. eigenvalues --   -0.55377  -0.55272  -0.54540  -0.54054  -0.53806
  Beta  occ. eigenvalues --   -0.52942  -0.52542  -0.52148  -0.51823  -0.51529
  Beta  occ. eigenvalues --   -0.50655  -0.50434  -0.47853  -0.46586  -0.44494
  Beta  occ. eigenvalues --   -0.44168  -0.43330  -0.42828  -0.41666  -0.41400
  Beta  occ. eigenvalues --   -0.41124  -0.39427  -0.35263
  Beta virt. eigenvalues --   -0.29765  -0.03140  -0.02197   0.01095   0.01548
  Beta virt. eigenvalues --    0.03682   0.03701   0.03966   0.06419   0.08582
  Beta virt. eigenvalues --    0.11068   0.11538   0.12800   0.13459   0.13957

 Mulliken charges and spin densities:
               1          2
     1  C   -0.233346   0.270413
     2  C    0.366724   0.160073
     3  C   -0.197021   0.007894
     4  N   -0.573068   0.006344
     5  C    0.863630  -0.013954
     6  O   -0.477692   0.074536
     7  N   -0.571289   0.005024
     8  C   -0.198383   0.008916
     9  C    0.363602   0.150003
    10  C   -0.239763   0.262478
    11  C    0.847857  -0.002825
    12  O   -0.476430   0.013236
    13  N   -0.640330   0.003944
    14  C    0.762738  -0.000281
    15  F   -0.253157   0.000378
    16  F   -0.250042   0.000330
    17  C    0.438533   0.000157
    18  F   -0.254240   0.000022
    19  O   -0.511050   0.000131
    20  C    0.998129   0.000005
    21  F   -0.241117   0.000008
    22  F   -0.240260  -0.000001
    23  F   -0.239911   0.000000
    24  C    0.816491   0.000011
    25  F   -0.244166   0.000003
    26  F   -0.256996   0.000019
    27  F   -0.242006  -0.000001
    28  C    0.866010  -0.002897
    29  O   -0.479856   0.015505
    30  H    0.263901  -0.009947
    31  H    0.241636   0.013430
    32  H    0.244796   0.016932
    33  H    0.245707   0.017053
    34  H    0.238640   0.012738
    35  H    0.261729  -0.009674
 Sum of Mulliken charges =   1.00000   1.00000

 Dipole moment (field-independent basis, Debye):
    X=            -10.5234    Y=              6.4519    Z=             -7.0015  Tot=             14.1912
 Quadrupole moment (field-independent basis, Debye-Ang):
   XX=           -128.2081   YY=           -110.0990   ZZ=           -120.6290
   XY=            -16.2253   XZ=             -1.2164   YZ=             21.3541

 Normal termination of Gaussian 09 at Sun Mar  3 18:09:58 2024.
