 Gaussian 09, Revision D.01,
 Gaussian 09:  ES64L-G09RevD.01 24-Apr-2013

 ----------------------------------------------------------------------
 #p CAM-B3LYP/6-31G(d,p) SCRF=(PCM,Solvent=Generic,Read) NoSymm out=wfn
 ----------------------------------------------------------------------

 -------------------
 Title A1013755060_0
 -------------------
 Symbolic Z-matrix:
 Charge =  0 Multiplicity = 1

                          Input orientation:
 ---------------------------------------------------------------------
 Center     Atomic      Atomic             Coordinates (Angstroms)
 Number     Number       Type             X           Y           Z
 ---------------------------------------------------------------------
      1          6           0       -3.139886   -1.958051   -0.697884
      2          7           0       -2.314608   -0.772903   -0.554739
      3          6           0       -0.890622   -0.956741   -0.630267
      4          7           0       -0.287676    0.317256   -0.919277
      5          6           0        1.137835    0.203014   -1.225025
      6          9           0        1.202099   -0.427275   -2.431831
      7          9           0        1.594101    1.466002   -1.462139
      8          6           0        2.117412   -0.501975   -0.239932
      9          9           0        1.702852   -1.795223   -0.069798
     10          8           0        2.016778    0.123664    1.046623
     11          6           0        2.993275   -0.322963    1.952690
     12          9           0        3.147722   -1.653136    1.885303
     13          9           0        2.594569    0.007216    3.194647
     14          9           0        4.153403    0.298829    1.692746
     15          6           0        3.498968   -0.473721   -0.917423
     16          9           0        3.496585   -1.016467   -2.153335
     17          9           0        4.409478   -1.179768   -0.202239
     18          9           0        3.981823    0.784626   -1.021554
     19          6           0       -0.571876    1.221466    0.161488
     20          7           0       -1.996912    1.409559    0.216848
     21          6           0       -2.479900    2.589663    0.909730
     22          6           0       -2.866334    0.350344    0.032736
     23          8           0       -4.052896    0.410297    0.352110
     24          1           0       -2.851153   -2.493532   -1.606971
     25          1           0       -2.985686   -2.600756    0.174064
     26          1           0       -4.200845   -1.702159   -0.766897
     27          1           0       -0.687421   -1.671430   -1.436195
     28          1           0       -0.560369   -1.395239    0.319398
     29          1           0       -0.113910    2.200563   -0.018449
     30          1           0       -0.252817    0.861606    1.145664
     31          1           0       -1.972237    3.475036    0.516163
     32          1           0       -2.264060    2.483562    1.977113
     33          1           0       -3.557694    2.718635    0.776631
 ---------------------------------------------------------------------

 SCF Done:  E(RCAM-B3LYP) =  -1561.76254277     A.U. after   13 cycles

 Alpha  occ. eigenvalues --  -24.84078 -24.83809 -24.83706 -24.83394 -24.83265
 Alpha  occ. eigenvalues --  -24.83145 -24.82686 -24.81801 -24.81441 -19.33439
 Alpha  occ. eigenvalues --  -19.17624 -14.45448 -14.43154 -14.43081 -10.59894
 Alpha  occ. eigenvalues --  -10.55353 -10.50210 -10.48576 -10.38470 -10.33852
 Alpha  occ. eigenvalues --  -10.33641 -10.28651 -10.28620  -1.43543  -1.41717
 Alpha  occ. eigenvalues --   -1.37724  -1.35899  -1.33924  -1.33581  -1.32749
 Alpha  occ. eigenvalues --   -1.32124  -1.30658  -1.20881  -1.13388  -1.08119
 Alpha  occ. eigenvalues --   -1.01320  -1.00053  -0.92504  -0.82989  -0.82273
 Alpha  occ. eigenvalues --   -0.81702  -0.80235  -0.77076  -0.74145  -0.73496
 Alpha  occ. eigenvalues --   -0.73022  -0.70958  -0.70638  -0.69354  -0.68606
 Alpha  occ. eigenvalues --   -0.67402  -0.66261  -0.65257  -0.64775  -0.61305
 Alpha  occ. eigenvalues --   -0.61117  -0.59893  -0.57667  -0.57378  -0.56693
 Alpha  occ. eigenvalues --   -0.56604  -0.56054  -0.55878  -0.55487  -0.54777
 Alpha  occ. eigenvalues --   -0.54558  -0.53520  -0.52826  -0.52650  -0.52087
 Alpha  occ. eigenvalues --   -0.51569  -0.51151  -0.50623  -0.50548  -0.50531
 Alpha  occ. eigenvalues --   -0.49869  -0.49510  -0.48982  -0.48661  -0.48601
 Alpha  occ. eigenvalues --   -0.48230  -0.46012  -0.45305  -0.45074  -0.44918
 Alpha  occ. eigenvalues --   -0.44650  -0.43407  -0.34388  -0.32880  -0.30651
 Alpha  occ. eigenvalues --   -0.28789
 Alpha virt. eigenvalues --    0.06876   0.08605   0.10213   0.13429   0.14909
 Alpha virt. eigenvalues --    0.16139   0.17030   0.18162   0.18940   0.19501
 Alpha virt. eigenvalues --    0.19682   0.20760   0.21908   0.22087   0.22450

 Mulliken charges:
               1
     1  C   -0.177248
     2  N   -0.513497
     3  C    0.107520
     4  N   -0.500463
     5  C    0.717559
     6  F   -0.277682
     7  F   -0.278901
     8  C    0.420174
     9  F   -0.266720
    10  O   -0.515853
    11  C    0.997900
    12  F   -0.241215
    13  F   -0.239480
    14  F   -0.241945
    15  C    0.812526
    16  F   -0.242626
    17  F   -0.261732
    18  F   -0.245928
    19  C    0.109122
    20  N   -0.510193
    21  C   -0.176688
    22  C    0.772105
    23  O   -0.583676
    24  H    0.123335
    25  H    0.119322
    26  H    0.154016
    27  H    0.144405
    28  H    0.124068
    29  H    0.145649
    30  H    0.130729
    31  H    0.123092
    32  H    0.118924
    33  H    0.153401
 Sum of Mulliken charges =   0.00000

 Dipole moment (field-independent basis, Debye):
    X=              2.7398    Y=             -0.8494    Z=              1.1804  Tot=              3.1018
 Quadrupole moment (field-independent basis, Debye-Ang):
   XX=           -148.7698   YY=           -116.7833   ZZ=           -128.0155
   XY=              3.6387   XZ=              3.8634   YZ=              4.1811

 Normal termination of Gaussian 09 at Sun Mar  3 18:23:28 2024.
