 Gaussian 09, Revision D.01,
 Gaussian 09:  ES64L-G09RevD.01 24-Apr-2013

 ----------------------------------------------------------------------
 #p CAM-B3LYP/6-31G(d,p) SCRF=(PCM,Solvent=Generic,Read) NoSymm out=wfn
 ----------------------------------------------------------------------

 --------------------
 Title A1013755060_p1
 --------------------
 Symbolic Z-matrix:
 Charge =  1 Multiplicity = 2

                          Input orientation:
 ---------------------------------------------------------------------
 Center     Atomic      Atomic             Coordinates (Angstroms)
 Number     Number       Type             X           Y           Z
 ---------------------------------------------------------------------
      1          6           0       -3.139886   -1.958051   -0.697884
      2          7           0       -2.314608   -0.772903   -0.554739
      3          6           0       -0.890622   -0.956741   -0.630267
      4          7           0       -0.287676    0.317256   -0.919277
      5          6           0        1.137835    0.203014   -1.225025
      6          9           0        1.202099   -0.427275   -2.431831
      7          9           0        1.594101    1.466002   -1.462139
      8          6           0        2.117412   -0.501975   -0.239932
      9          9           0        1.702852   -1.795223   -0.069798
     10          8           0        2.016778    0.123664    1.046623
     11          6           0        2.993275   -0.322963    1.952690
     12          9           0        3.147722   -1.653136    1.885303
     13          9           0        2.594569    0.007216    3.194647
     14          9           0        4.153403    0.298829    1.692746
     15          6           0        3.498968   -0.473721   -0.917423
     16          9           0        3.496585   -1.016467   -2.153335
     17          9           0        4.409478   -1.179768   -0.202239
     18          9           0        3.981823    0.784626   -1.021554
     19          6           0       -0.571876    1.221466    0.161488
     20          7           0       -1.996912    1.409559    0.216848
     21          6           0       -2.479900    2.589663    0.909730
     22          6           0       -2.866334    0.350344    0.032736
     23          8           0       -4.052896    0.410297    0.352110
     24          1           0       -2.851153   -2.493532   -1.606971
     25          1           0       -2.985686   -2.600756    0.174064
     26          1           0       -4.200845   -1.702159   -0.766897
     27          1           0       -0.687421   -1.671430   -1.436195
     28          1           0       -0.560369   -1.395239    0.319398
     29          1           0       -0.113910    2.200563   -0.018449
     30          1           0       -0.252817    0.861606    1.145664
     31          1           0       -1.972237    3.475036    0.516163
     32          1           0       -2.264060    2.483562    1.977113
     33          1           0       -3.557694    2.718635    0.776631
 ---------------------------------------------------------------------

 SCF Done:  E(UCAM-B3LYP) =  -1561.50930952     A.U. after   23 cycles

 Alpha  occ. eigenvalues --  -24.86725 -24.86256 -24.85963 -24.85769 -24.85760
 Alpha  occ. eigenvalues --  -24.85445 -24.85355 -24.85314 -24.84799 -19.36504
 Alpha  occ. eigenvalues --  -19.26688 -14.59231 -14.58826 -14.52085 -10.62266
 Alpha  occ. eigenvalues --  -10.57783 -10.54800 -10.51939 -10.48368 -10.41691
 Alpha  occ. eigenvalues --  -10.41644 -10.36160 -10.36004  -1.45750  -1.43959
 Alpha  occ. eigenvalues --   -1.41505  -1.39171  -1.36082  -1.35722  -1.35196
 Alpha  occ. eigenvalues --   -1.34285  -1.34179  -1.24283  -1.23868  -1.16364
 Alpha  occ. eigenvalues --   -1.13975  -1.09438  -0.95932  -0.90920  -0.90747
 Alpha  occ. eigenvalues --   -0.87907  -0.84956  -0.82717  -0.81443  -0.78230
 Alpha  occ. eigenvalues --   -0.75636  -0.74676  -0.73586  -0.72539  -0.72287
 Alpha  occ. eigenvalues --   -0.71160  -0.70766  -0.70241  -0.69455  -0.68501
 Alpha  occ. eigenvalues --   -0.67506  -0.65696  -0.65101  -0.64037  -0.63016
 Alpha  occ. eigenvalues --   -0.61632  -0.60128  -0.59619  -0.59227  -0.58723
 Alpha  occ. eigenvalues --   -0.58547  -0.57688  -0.57488  -0.57162  -0.56393
 Alpha  occ. eigenvalues --   -0.56163  -0.55438  -0.55019  -0.54737  -0.54418
 Alpha  occ. eigenvalues --   -0.53958  -0.53160  -0.52978  -0.52891  -0.52597
 Alpha  occ. eigenvalues --   -0.52448  -0.52406  -0.52236  -0.51477  -0.50927
 Alpha  occ. eigenvalues --   -0.48998  -0.47485  -0.43493  -0.42278  -0.41125
 Alpha  occ. eigenvalues --   -0.40168
 Alpha virt. eigenvalues --    0.00324   0.03324   0.05554   0.07591   0.09538
 Alpha virt. eigenvalues --    0.10727   0.11641   0.11846   0.13055   0.13514
 Alpha virt. eigenvalues --    0.14837   0.16110   0.16633   0.16986   0.17279

  Beta  occ. eigenvalues --  -24.86723 -24.86256 -24.85963 -24.85769 -24.85756
  Beta  occ. eigenvalues --  -24.85445 -24.85352 -24.85314 -24.84799 -19.36502
  Beta  occ. eigenvalues --  -19.26837 -14.58082 -14.57736 -14.52070 -10.62266
  Beta  occ. eigenvalues --  -10.57783 -10.54804 -10.51939 -10.48512 -10.41721
  Beta  occ. eigenvalues --  -10.41673 -10.36185 -10.36028  -1.45750  -1.43959
  Beta  occ. eigenvalues --   -1.41501  -1.39167  -1.36081  -1.35722  -1.35193
  Beta  occ. eigenvalues --   -1.34283  -1.34176  -1.23892  -1.23326  -1.16241
  Beta  occ. eigenvalues --   -1.11740  -1.08726  -0.95915  -0.90587  -0.90439
  Beta  occ. eigenvalues --   -0.87761  -0.84936  -0.81892  -0.81327  -0.78171
  Beta  occ. eigenvalues --   -0.75619  -0.74534  -0.73501  -0.72346  -0.72165
  Beta  occ. eigenvalues --   -0.70731  -0.70449  -0.69837  -0.69409  -0.67894
  Beta  occ. eigenvalues --   -0.67268  -0.64534  -0.63433  -0.63140  -0.62848
  Beta  occ. eigenvalues --   -0.60971  -0.60003  -0.59481  -0.58931  -0.58549
  Beta  occ. eigenvalues --   -0.58200  -0.57681  -0.57414  -0.56300  -0.56279
  Beta  occ. eigenvalues --   -0.56112  -0.55260  -0.55001  -0.54722  -0.54375
  Beta  occ. eigenvalues --   -0.53768  -0.53068  -0.52772  -0.52500  -0.52439
  Beta  occ. eigenvalues --   -0.52400  -0.52205  -0.51929  -0.51447  -0.50917
  Beta  occ. eigenvalues --   -0.48984  -0.47466  -0.41187  -0.40833  -0.37280
  Beta virt. eigenvalues --   -0.21784   0.01005   0.03364   0.05722   0.07775
  Beta virt. eigenvalues --    0.09742   0.10789   0.11797   0.12534   0.13255
  Beta virt. eigenvalues --    0.13954   0.14915   0.16458   0.16799   0.17070

 Mulliken charges and spin densities:
               1          2
     1  C   -0.216362  -0.022868
     2  N   -0.388917   0.490147
     3  C    0.074089  -0.022468
     4  N   -0.505467   0.006250
     5  C    0.727752  -0.001490
     6  F   -0.264189   0.000683
     7  F   -0.265896   0.000651
     8  C    0.418560  -0.000039
     9  F   -0.262495   0.000374
    10  O   -0.523338   0.000349
    11  C    1.003416   0.000038
    12  F   -0.237301   0.000013
    13  F   -0.236155   0.000004
    14  F   -0.236439   0.000026
    15  C    0.820649  -0.000067
    16  F   -0.238376   0.000005
    17  F   -0.255258  -0.000021
    18  F   -0.241431   0.000004
    19  C    0.077063  -0.022482
    20  N   -0.377790   0.515952
    21  C   -0.217429  -0.023826
    22  C    0.810795  -0.086743
    23  O   -0.495359  -0.051667
    24  H    0.191166   0.015256
    25  H    0.203213   0.043749
    26  H    0.207709   0.003843
    27  H    0.209797   0.011736
    28  H    0.195615   0.031186
    29  H    0.211806   0.011893
    30  H    0.203033   0.033410
    31  H    0.192618   0.015503
    32  H    0.205789   0.046187
    33  H    0.209133   0.004412
 Sum of Mulliken charges =   1.00000   1.00000

 Dipole moment (field-independent basis, Debye):
    X=             -6.4507    Y=              0.4226    Z=              1.0514  Tot=              6.5495
 Quadrupole moment (field-independent basis, Debye-Ang):
   XX=           -114.7264   YY=            -98.2837   ZZ=           -120.2919
   XY=              1.8804   XZ=              3.6819   YZ=              8.6860

 Normal termination of Gaussian 09 at Sun Mar  3 18:23:55 2024.
