 Gaussian 09, Revision D.01,
 Gaussian 09:  ES64L-G09RevD.01 24-Apr-2013

 ----------------------------------------------------------------------
 #p CAM-B3LYP/6-31G(d,p) SCRF=(PCM,Solvent=Generic,Read) NoSymm out=wfn
 ----------------------------------------------------------------------

 ------------
 Title A2_neu
 ------------
 Symbolic Z-matrix:
 Charge =  0 Multiplicity = 1

                          Input orientation:
 ---------------------------------------------------------------------
 Center     Atomic      Atomic             Coordinates (Angstroms)
 Number     Number       Type             X           Y           Z
 ---------------------------------------------------------------------
      1          9           0        0.941843    1.401371    0.987152
      2          6           0        0.756210    0.129293    0.544786
      3          6           0        2.019219   -0.310101   -0.178170
      4          9           0        1.805874   -1.470200   -0.848265
      5          6           0        2.570060    0.768363   -1.118556
      6          9           0        1.679266    1.163610   -2.051421
      7          9           0        2.940237    1.879536   -0.438385
      8          9           0        3.669865    0.329445   -1.777272
      9          9           0        2.988084   -0.596148    0.741855
     10          6           0       -0.507993   -0.033534   -0.312431
     11          8           0       -1.122560   -1.301387   -0.000199
     12          6           0       -0.360271   -1.876366    1.056724
     13          9           0       -1.190811   -2.522148    1.896590
     14          9           0        0.450573   -2.797874    0.501057
     15          6           0        0.403713   -0.751320    1.712719
     16          9           0       -0.438455   -0.068041    2.539146
     17          9           0        1.438900   -1.135816    2.474045
     18          6           0       -1.495794    1.133040   -0.152391
     19          9           0       -0.857610    2.298477   -0.469435
     20          6           0       -2.699870    0.902827   -1.055747
     21          8           0       -3.743661    0.303043   -0.437240
     22          8           0       -2.791627    1.191530   -2.240024
     23          9           0       -1.855205    1.255924    1.156118
     24          9           0       -0.159942   -0.124181   -1.622008
     25          1           0       -4.440046    0.230655   -1.125837
 ---------------------------------------------------------------------

 SCF Done:  E(RCAM-B3LYP) =  -1828.51017427     A.U. after   13 cycles

 Alpha  occ. eigenvalues --  -24.83769 -24.83662 -24.83638 -24.83339 -24.83237
 Alpha  occ. eigenvalues --  -24.83171 -24.83107 -24.83046 -24.82949 -24.82853
 Alpha  occ. eigenvalues --  -24.82832 -24.82631 -24.82516 -19.32643 -19.30197
 Alpha  occ. eigenvalues --  -19.25555 -10.55142 -10.53295 -10.50319 -10.49359
 Alpha  occ. eigenvalues --  -10.49305 -10.48088 -10.44503 -10.43684  -1.42097
 Alpha  occ. eigenvalues --   -1.40921  -1.38899  -1.38631  -1.38281  -1.36116
 Alpha  occ. eigenvalues --   -1.35718  -1.33078  -1.32956  -1.32384  -1.32119
 Alpha  occ. eigenvalues --   -1.31767  -1.31307  -1.22132  -1.20833  -1.12298
 Alpha  occ. eigenvalues --   -0.98252  -0.91982  -0.90305  -0.85123  -0.80361
 Alpha  occ. eigenvalues --   -0.78062  -0.76031  -0.74124  -0.72075  -0.71395
 Alpha  occ. eigenvalues --   -0.70988  -0.69979  -0.69181  -0.68412  -0.67876
 Alpha  occ. eigenvalues --   -0.67485  -0.66772  -0.65636  -0.65441  -0.64665
 Alpha  occ. eigenvalues --   -0.63331  -0.62551  -0.58675  -0.58245  -0.57864
 Alpha  occ. eigenvalues --   -0.57607  -0.57090  -0.56210  -0.55817  -0.55632
 Alpha  occ. eigenvalues --   -0.55301  -0.54543  -0.54279  -0.54199  -0.53823
 Alpha  occ. eigenvalues --   -0.53154  -0.52882  -0.52728  -0.52286  -0.51603
 Alpha  occ. eigenvalues --   -0.51312  -0.51078  -0.50810  -0.50291  -0.49985
 Alpha  occ. eigenvalues --   -0.49930  -0.49514  -0.49272  -0.48215  -0.47208
 Alpha  occ. eigenvalues --   -0.44945  -0.43533  -0.42930  -0.41125  -0.37767
 Alpha virt. eigenvalues --   -0.00746   0.04017   0.06680   0.07838   0.10932
 Alpha virt. eigenvalues --    0.12080   0.12932   0.16061   0.16662   0.20091
 Alpha virt. eigenvalues --    0.21551   0.23495   0.24383   0.25089   0.25568

 Mulliken charges:
               1
     1  F   -0.283700
     2  C    0.130617
     3  C    0.526914
     4  F   -0.255591
     5  C    0.789947
     6  F   -0.237037
     7  F   -0.245558
     8  F   -0.248526
     9  F   -0.267518
    10  C    0.477671
    11  O   -0.494665
    12  C    0.750212
    13  F   -0.242701
    14  F   -0.238067
    15  C    0.552140
    16  F   -0.263055
    17  F   -0.246813
    18  C    0.622809
    19  F   -0.269107
    20  C    0.524917
    21  O   -0.469204
    22  O   -0.441251
    23  F   -0.265888
    24  F   -0.267710
    25  H    0.361163
 Sum of Mulliken charges =   0.00000

 Dipole moment (field-independent basis, Debye):
    X=             -1.6274    Y=             -0.6974    Z=              0.6103  Tot=              1.8728
 Quadrupole moment (field-independent basis, Debye-Ang):
   XX=           -114.7684   YY=           -128.2444   ZZ=           -131.2509
   XY=              0.2470   XZ=              2.4287   YZ=              2.2179

 Normal termination of Gaussian 09 at Mon Feb  3 21:53:45 2025.
