 Gaussian 09, Revision D.01,
 Gaussian 09:  ES64L-G09RevD.01 24-Apr-2013

 ----------------------------------------------------------------------
 #p CAM-B3LYP/6-31G(d,p) SCRF=(PCM,Solvent=Generic,Read) NoSymm out=wfn
 ----------------------------------------------------------------------

 -----------------
 Title A19083710_0
 -----------------
 Symbolic Z-matrix:
 Charge =  0 Multiplicity = 1

                          Input orientation:
 ---------------------------------------------------------------------
 Center     Atomic      Atomic             Coordinates (Angstroms)
 Number     Number       Type             X           Y           Z
 ---------------------------------------------------------------------
      1          6           0       -4.679167    0.804964    0.016279
      2          6           0       -3.360470    0.098534    0.203155
      3          6           0       -3.237400   -0.858835    1.140616
      4          6           0       -2.275029    0.580525   -0.740559
      5          7           0       -1.023485   -0.114329   -0.561520
      6          6           0       -0.658074   -1.233827   -1.232246
      7          8           0       -1.248552   -1.857475   -2.088356
      8          6           0        0.740758   -1.579245   -0.695855
      9          8           0        1.378536   -2.564937   -0.999458
     10          7           0        1.043776   -0.575826    0.163218
     11          6           0       -0.008671    0.295148    0.262201
     12          8           0       -0.037830    1.287324    0.977172
     13          6           0        2.272019   -0.477831    0.913587
     14          6           0        3.348558    0.306729    0.187899
     15          6           0        3.236528    0.888530   -1.020195
     16          6           0        4.643633    0.403591    0.953619
     17          1           0       -5.050455    0.651471   -1.002296
     18          1           0       -4.560507    1.880153    0.186005
     19          1           0       -5.447000    0.442284    0.707891
     20          1           0       -2.315112   -1.398986    1.319922
     21          1           0       -4.076672   -1.138100    1.772819
     22          1           0       -2.607391    0.431996   -1.774508
     23          1           0       -2.106517    1.651345   -0.579114
     24          1           0        2.638568   -1.492132    1.109578
     25          1           0        2.057791    0.006727    1.872976
     26          1           0        2.331189    0.852321   -1.614821
     27          1           0        4.068021    1.432226   -1.461855
     28          1           0        5.048836   -0.596185    1.141159
     29          1           0        4.478777    0.899336    1.915897
     30          1           0        5.405342    0.974504    0.412058
 ---------------------------------------------------------------------

 SCF Done:  E(RCAM-B3LYP) =  -762.434652019     A.U. after   13 cycles

 Alpha  occ. eigenvalues --  -19.23749 -19.23746 -19.22984 -14.48661 -14.48658
 Alpha  occ. eigenvalues --  -10.43210 -10.40167 -10.40147 -10.32453 -10.32450
 Alpha  occ. eigenvalues --  -10.28575 -10.28569 -10.26080 -10.26074 -10.25807
 Alpha  occ. eigenvalues --  -10.25799  -1.20530  -1.15469  -1.14471  -1.09136
 Alpha  occ. eigenvalues --   -1.04965  -0.91999  -0.89520  -0.84284  -0.79169
 Alpha  occ. eigenvalues --   -0.78313  -0.76959  -0.76949  -0.71688  -0.69451
 Alpha  occ. eigenvalues --   -0.62867  -0.62364  -0.60357  -0.59149  -0.56700
 Alpha  occ. eigenvalues --   -0.55019  -0.54439  -0.53977  -0.52309  -0.52308
 Alpha  occ. eigenvalues --   -0.51336  -0.51100  -0.48977  -0.48345  -0.47790
 Alpha  occ. eigenvalues --   -0.47549  -0.46989  -0.46698  -0.44155  -0.44070
 Alpha  occ. eigenvalues --   -0.42302  -0.42119  -0.40448  -0.36330  -0.36096
 Alpha  occ. eigenvalues --   -0.35057  -0.33811  -0.31496  -0.31461
 Alpha virt. eigenvalues --   -0.03495   0.06421   0.06473   0.08972   0.12744
 Alpha virt. eigenvalues --    0.13728   0.14608   0.16594   0.17672   0.17797
 Alpha virt. eigenvalues --    0.18725   0.19146   0.19429   0.19621   0.20525

 Mulliken charges:
               1
     1  C   -0.366953
     2  C    0.137649
     3  C   -0.273283
     4  C   -0.095493
     5  N   -0.531016
     6  C    0.556071
     7  O   -0.462926
     8  C    0.555794
     9  O   -0.462922
    10  N   -0.531063
    11  C    0.795421
    12  O   -0.498527
    13  C   -0.095500
    14  C    0.137676
    15  C   -0.273162
    16  C   -0.366930
    17  H    0.124604
    18  H    0.123969
    19  H    0.122662
    20  H    0.088597
    21  H    0.109118
    22  H    0.158451
    23  H    0.160272
    24  H    0.158508
    25  H    0.160270
    26  H    0.088456
    27  H    0.109058
    28  H    0.124619
    29  H    0.123985
    30  H    0.122595
 Sum of Mulliken charges =   0.00000

 Dipole moment (field-independent basis, Debye):
    X=             -0.0817    Y=              2.7294    Z=              1.9682  Tot=              3.3660
 Quadrupole moment (field-independent basis, Debye-Ang):
   XX=            -77.6437   YY=           -106.6852   ZZ=            -96.8425
   XY=             -1.1591   XZ=              3.2113   YZ=            -14.0791

 Normal termination of Gaussian 09 at Mon Mar  4 23:18:47 2024.
