 Gaussian 09, Revision D.01,
 Gaussian 09:  ES64L-G09RevD.01 24-Apr-2013

 ----------------------------------------------------------------------
 #p CAM-B3LYP/6-31G(d,p) SCRF=(PCM,Solvent=Generic,Read) NoSymm out=wfn
 ----------------------------------------------------------------------

 ------------------
 Title A19083710_p1
 ------------------
 Symbolic Z-matrix:
 Charge =  1 Multiplicity = 2

                          Input orientation:
 ---------------------------------------------------------------------
 Center     Atomic      Atomic             Coordinates (Angstroms)
 Number     Number       Type             X           Y           Z
 ---------------------------------------------------------------------
      1          6           0       -4.679167    0.804964    0.016279
      2          6           0       -3.360470    0.098534    0.203155
      3          6           0       -3.237400   -0.858835    1.140616
      4          6           0       -2.275029    0.580525   -0.740559
      5          7           0       -1.023485   -0.114329   -0.561520
      6          6           0       -0.658074   -1.233827   -1.232246
      7          8           0       -1.248552   -1.857475   -2.088356
      8          6           0        0.740758   -1.579245   -0.695855
      9          8           0        1.378536   -2.564937   -0.999458
     10          7           0        1.043776   -0.575826    0.163218
     11          6           0       -0.008671    0.295148    0.262201
     12          8           0       -0.037830    1.287324    0.977172
     13          6           0        2.272019   -0.477831    0.913587
     14          6           0        3.348558    0.306729    0.187899
     15          6           0        3.236528    0.888530   -1.020195
     16          6           0        4.643633    0.403591    0.953619
     17          1           0       -5.050455    0.651471   -1.002296
     18          1           0       -4.560507    1.880153    0.186005
     19          1           0       -5.447000    0.442284    0.707891
     20          1           0       -2.315112   -1.398986    1.319922
     21          1           0       -4.076672   -1.138100    1.772819
     22          1           0       -2.607391    0.431996   -1.774508
     23          1           0       -2.106517    1.651345   -0.579114
     24          1           0        2.638568   -1.492132    1.109578
     25          1           0        2.057791    0.006727    1.872976
     26          1           0        2.331189    0.852321   -1.614821
     27          1           0        4.068021    1.432226   -1.461855
     28          1           0        5.048836   -0.596185    1.141159
     29          1           0        4.478777    0.899336    1.915897
     30          1           0        5.405342    0.974504    0.412058
 ---------------------------------------------------------------------

 SCF Done:  E(UCAM-B3LYP) =  -762.129445667     A.U. after   30 cycles

 Alpha  occ. eigenvalues --  -19.31403 -19.30224 -19.29756 -14.57424 -14.54990
 Alpha  occ. eigenvalues --  -10.50538 -10.50297 -10.48095 -10.47745 -10.46390
 Alpha  occ. eigenvalues --  -10.45005 -10.39274 -10.37290 -10.32638 -10.29806
 Alpha  occ. eigenvalues --  -10.29511  -1.27980  -1.22675  -1.21048  -1.16656
 Alpha  occ. eigenvalues --   -1.12935  -1.08537  -0.97595  -0.94360  -0.92512
 Alpha  occ. eigenvalues --   -0.86772  -0.85596  -0.80750  -0.79741  -0.78571
 Alpha  occ. eigenvalues --   -0.75940  -0.72089  -0.69757  -0.67803  -0.66784
 Alpha  occ. eigenvalues --   -0.65728  -0.64422  -0.62043  -0.61138  -0.60493
 Alpha  occ. eigenvalues --   -0.59314  -0.58775  -0.58180  -0.58111  -0.57400
 Alpha  occ. eigenvalues --   -0.56184  -0.55810  -0.53672  -0.52587  -0.51892
 Alpha  occ. eigenvalues --   -0.50732  -0.48237  -0.47321  -0.46195  -0.44529
 Alpha  occ. eigenvalues --   -0.43392  -0.41400  -0.40444  -0.35458
 Alpha virt. eigenvalues --   -0.13523  -0.10353   0.01242   0.02456   0.03162
 Alpha virt. eigenvalues --    0.05336   0.05996   0.06399   0.06826   0.08999
 Alpha virt. eigenvalues --    0.09709   0.11757   0.12109   0.13581   0.14146

  Beta  occ. eigenvalues --  -19.31398 -19.30214 -19.29753 -14.57426 -14.54989
  Beta  occ. eigenvalues --  -10.50539 -10.49822 -10.47745 -10.47206 -10.46390
  Beta  occ. eigenvalues --  -10.45013 -10.39270 -10.37290 -10.32638 -10.29806
  Beta  occ. eigenvalues --  -10.29511  -1.27971  -1.22662  -1.21038  -1.16611
  Beta  occ. eigenvalues --   -1.12714  -1.06414  -0.97054  -0.93473  -0.92054
  Beta  occ. eigenvalues --   -0.86699  -0.85580  -0.80743  -0.79462  -0.78181
  Beta  occ. eigenvalues --   -0.75362  -0.71553  -0.69580  -0.67546  -0.66292
  Beta  occ. eigenvalues --   -0.64365  -0.63923  -0.61874  -0.60952  -0.60159
  Beta  occ. eigenvalues --   -0.59201  -0.58262  -0.58038  -0.57757  -0.57289
  Beta  occ. eigenvalues --   -0.56174  -0.55710  -0.53624  -0.51890  -0.50732
  Beta  occ. eigenvalues --   -0.48239  -0.47306  -0.46194  -0.44457  -0.43378
  Beta  occ. eigenvalues --   -0.41384  -0.40420  -0.35449
  Beta virt. eigenvalues --   -0.29550  -0.10341  -0.07452   0.01308   0.02461
  Beta virt. eigenvalues --    0.03523   0.05589   0.06143   0.06577   0.07201
  Beta virt. eigenvalues --    0.09348   0.09776   0.11893   0.12439   0.13649

 Mulliken charges and spin densities:
               1          2
     1  C   -0.399342  -0.016618
     2  C    0.217390   0.339562
     3  C   -0.082291   0.631402
     4  C   -0.113884  -0.019990
     5  N   -0.556058   0.000601
     6  C    0.549991  -0.000958
     7  O   -0.437725   0.002191
     8  C    0.568607   0.000019
     9  O   -0.434257   0.001128
    10  N   -0.526761   0.000098
    11  C    0.793510  -0.001415
    12  O   -0.482345   0.003939
    13  C   -0.102718   0.000103
    14  C    0.135140   0.000116
    15  C   -0.269309   0.000365
    16  C   -0.367221  -0.000009
    17  H    0.224150   0.033160
    18  H    0.223645   0.033078
    19  H    0.186100  -0.000561
    20  H    0.220665  -0.026162
    21  H    0.239861  -0.026198
    22  H    0.240786   0.022689
    23  H    0.243070   0.023441
    24  H    0.170962   0.000033
    25  H    0.165217  -0.000014
    26  H    0.079127  -0.000016
    27  H    0.123003  -0.000016
    28  H    0.131084   0.000016
    29  H    0.127094   0.000014
    30  H    0.132509  -0.000001
 Sum of Mulliken charges =   1.00000   1.00000

 Dipole moment (field-independent basis, Debye):
    X=            -14.5105    Y=              1.8259    Z=              3.7436  Tot=             15.0964
 Quadrupole moment (field-independent basis, Debye-Ang):
   XX=            -14.0851   YY=            -97.4012   ZZ=            -87.5622
   XY=             -0.5464   XZ=             -3.4795   YZ=            -15.9595

 Normal termination of Gaussian 09 at Mon Mar  4 23:20:36 2024.
