 Gaussian 09, Revision D.01,
 Gaussian 09:  ES64L-G09RevD.01 24-Apr-2013

 ----------------------------------------------------------------------
 #p CAM-B3LYP/6-31G(d,p) SCRF=(PCM,Solvent=Generic,Read) NoSymm out=wfn
 ----------------------------------------------------------------------

 ----------------
 Title A3349540_0
 ----------------
 Symbolic Z-matrix:
 Charge =  0 Multiplicity = 1

                          Input orientation:
 ---------------------------------------------------------------------
 Center     Atomic      Atomic             Coordinates (Angstroms)
 Number     Number       Type             X           Y           Z
 ---------------------------------------------------------------------
      1          6           0        6.859037   -1.564638    0.167155
      2          6           0        5.803818   -1.834635   -0.888828
      3          8           0        4.601495   -1.111907   -0.581560
      4          6           0        4.538965    0.158534   -1.054740
      5          8           0        5.418623    0.724681   -1.685671
      6          6           0        3.233190    0.782449   -0.682242
      7          6           0        2.969039    1.984728   -1.228634
      8          6           0        2.355765    0.003420    0.266356
      9          7           0        1.183740    0.761429    0.726399
     10          6           0        1.312368    1.599005    1.814756
     11          6           0        0.284524    2.303920    2.275406
     12          6           0       -1.036365    2.206964    1.627789
     13          8           0       -1.988322    2.849736    2.063204
     14          7           0       -1.098842    1.352577    0.532171
     15          6           0       -0.024666    0.605474    0.041383
     16          8           0       -0.129827   -0.145085   -0.928299
     17          6           0       -2.378901    1.235295   -0.159821
     18          6           0       -3.251600    0.124978    0.385892
     19          6           0       -2.958316   -0.707015    1.403982
     20          6           0       -4.550292    0.023508   -0.349003
     21          8           0       -4.842839    0.762941   -1.277795
     22          8           0       -5.330156   -0.973131    0.139964
     23          6           0       -6.602115   -1.145766   -0.501398
     24          6           0       -6.461225   -2.057856   -1.705533
     25          9           0        0.398946    3.123168    3.337017
     26          1           0        7.759046   -2.155867   -0.023765
     27          1           0        6.477989   -1.812347    1.163350
     28          1           0        7.134116   -0.505368    0.185993
     29          1           0        5.545649   -2.898686   -0.887623
     30          1           0        6.169388   -1.593365   -1.893575
     31          1           0        3.668228    2.469018   -1.907353
     32          1           0        2.047473    2.522014   -1.036876
     33          1           0        2.018541   -0.918695   -0.221767
     34          1           0        2.926177   -0.293308    1.156074
     35          1           0        2.286424    1.670988    2.288521
     36          1           0       -2.190537    1.061007   -1.226319
     37          1           0       -2.913760    2.189765   -0.079938
     38          1           0       -2.023545   -0.649868    1.949171
     39          1           0       -3.644481   -1.481385    1.735223
     40          1           0       -7.270410   -1.606953    0.233160
     41          1           0       -7.044264   -0.181548   -0.777415
     42          1           0       -5.796876   -1.618112   -2.456103
     43          1           0       -6.020190   -3.016204   -1.412270
     44          1           0       -7.435017   -2.243858   -2.167234
 ---------------------------------------------------------------------

 SCF Done:  E(RCAM-B3LYP) =  -1281.30068643     A.U. after   14 cycles

 Alpha  occ. eigenvalues --  -24.79696 -19.27960 -19.26873 -19.22022 -19.21791
 Alpha  occ. eigenvalues --  -19.21382 -19.21144 -14.49130 -14.48549 -10.42750
 Alpha  occ. eigenvalues --  -10.40724 -10.40160 -10.39653 -10.36208 -10.34094
 Alpha  occ. eigenvalues --  -10.32877 -10.32310 -10.31650 -10.31264 -10.30000
 Alpha  occ. eigenvalues --  -10.29367 -10.28642 -10.27991 -10.25901 -10.25239
 Alpha  occ. eigenvalues --   -1.31337  -1.19336  -1.18517  -1.16953  -1.13217
 Alpha  occ. eigenvalues --   -1.10388  -1.09932  -1.07293  -1.04125  -0.92254
 Alpha  occ. eigenvalues --   -0.90024  -0.88270  -0.85331  -0.84846  -0.81632
 Alpha  occ. eigenvalues --   -0.79981  -0.75877  -0.75029  -0.73993  -0.73264
 Alpha  occ. eigenvalues --   -0.68835  -0.68085  -0.66846  -0.63719  -0.62544
 Alpha  occ. eigenvalues --   -0.61780  -0.60813  -0.59280  -0.57689  -0.56772
 Alpha  occ. eigenvalues --   -0.56654  -0.55932  -0.55459  -0.54590  -0.54150
 Alpha  occ. eigenvalues --   -0.53931  -0.53345  -0.52887  -0.52127  -0.51716
 Alpha  occ. eigenvalues --   -0.51221  -0.50349  -0.49487  -0.48635  -0.48511
 Alpha  occ. eigenvalues --   -0.47849  -0.47071  -0.46571  -0.46354  -0.46015
 Alpha  occ. eigenvalues --   -0.45521  -0.45160  -0.44722  -0.43846  -0.43511
 Alpha  occ. eigenvalues --   -0.41863  -0.40829  -0.40234  -0.37343  -0.36657
 Alpha  occ. eigenvalues --   -0.36540  -0.35446  -0.35266  -0.34104  -0.34039
 Alpha  occ. eigenvalues --   -0.33806  -0.33288  -0.29665
 Alpha virt. eigenvalues --   -0.00289   0.00223   0.00450   0.05036   0.11706
 Alpha virt. eigenvalues --    0.11878   0.13108   0.14986   0.15760   0.16058
 Alpha virt. eigenvalues --    0.16303   0.16962   0.17666   0.18136   0.18607

 Mulliken charges:
               1
     1  C   -0.337820
     2  C    0.028338
     3  O   -0.485865
     4  C    0.618505
     5  O   -0.497052
     6  C    0.047090
     7  C   -0.236766
     8  C   -0.096510
     9  N   -0.545746
    10  C    0.106186
    11  C    0.240275
    12  C    0.584971
    13  O   -0.507992
    14  N   -0.591297
    15  C    0.796553
    16  O   -0.520489
    17  C   -0.090497
    18  C    0.060980
    19  C   -0.245521
    20  C    0.629522
    21  O   -0.498140
    22  O   -0.485483
    23  C    0.029224
    24  C   -0.336533
    25  F   -0.276386
    26  H    0.119954
    27  H    0.117327
    28  H    0.131756
    29  H    0.123335
    30  H    0.138470
    31  H    0.151279
    32  H    0.120479
    33  H    0.181519
    34  H    0.145973
    35  H    0.165870
    36  H    0.170078
    37  H    0.170882
    38  H    0.109858
    39  H    0.143276
    40  H    0.119768
    41  H    0.133918
    42  H    0.131644
    43  H    0.119654
    44  H    0.115413
 Sum of Mulliken charges =   0.00000

 Dipole moment (field-independent basis, Debye):
    X=              2.8982    Y=             -4.5321    Z=              1.4408  Tot=              5.5692
 Quadrupole moment (field-independent basis, Debye-Ang):
   XX=           -126.8898   YY=           -146.9231   ZZ=           -152.8626
   XY=              5.8583   XZ=             10.1581   YZ=             -7.2590

 Normal termination of Gaussian 09 at Mon Mar  4 22:55:55 2024.
