 Gaussian 09, Revision D.01,
 Gaussian 09:  ES64L-G09RevD.01 24-Apr-2013

 ----------------------------------------------------------------------
 #p CAM-B3LYP/6-31G(d,p) SCRF=(PCM,Solvent=Generic,Read) NoSymm out=wfn
 ----------------------------------------------------------------------

 -----------------
 Title A3349540_p1
 -----------------
 Symbolic Z-matrix:
 Charge =  1 Multiplicity = 2

                          Input orientation:
 ---------------------------------------------------------------------
 Center     Atomic      Atomic             Coordinates (Angstroms)
 Number     Number       Type             X           Y           Z
 ---------------------------------------------------------------------
      1          6           0        6.859037   -1.564638    0.167155
      2          6           0        5.803818   -1.834635   -0.888828
      3          8           0        4.601495   -1.111907   -0.581560
      4          6           0        4.538965    0.158534   -1.054740
      5          8           0        5.418623    0.724681   -1.685671
      6          6           0        3.233190    0.782449   -0.682242
      7          6           0        2.969039    1.984728   -1.228634
      8          6           0        2.355765    0.003420    0.266356
      9          7           0        1.183740    0.761429    0.726399
     10          6           0        1.312368    1.599005    1.814756
     11          6           0        0.284524    2.303920    2.275406
     12          6           0       -1.036365    2.206964    1.627789
     13          8           0       -1.988322    2.849736    2.063204
     14          7           0       -1.098842    1.352577    0.532171
     15          6           0       -0.024666    0.605474    0.041383
     16          8           0       -0.129827   -0.145085   -0.928299
     17          6           0       -2.378901    1.235295   -0.159821
     18          6           0       -3.251600    0.124978    0.385892
     19          6           0       -2.958316   -0.707015    1.403982
     20          6           0       -4.550292    0.023508   -0.349003
     21          8           0       -4.842839    0.762941   -1.277795
     22          8           0       -5.330156   -0.973131    0.139964
     23          6           0       -6.602115   -1.145766   -0.501398
     24          6           0       -6.461225   -2.057856   -1.705533
     25          9           0        0.398946    3.123168    3.337017
     26          1           0        7.759046   -2.155867   -0.023765
     27          1           0        6.477989   -1.812347    1.163350
     28          1           0        7.134116   -0.505368    0.185993
     29          1           0        5.545649   -2.898686   -0.887623
     30          1           0        6.169388   -1.593365   -1.893575
     31          1           0        3.668228    2.469018   -1.907353
     32          1           0        2.047473    2.522014   -1.036876
     33          1           0        2.018541   -0.918695   -0.221767
     34          1           0        2.926177   -0.293308    1.156074
     35          1           0        2.286424    1.670988    2.288521
     36          1           0       -2.190537    1.061007   -1.226319
     37          1           0       -2.913760    2.189765   -0.079938
     38          1           0       -2.023545   -0.649868    1.949171
     39          1           0       -3.644481   -1.481385    1.735223
     40          1           0       -7.270410   -1.606953    0.233160
     41          1           0       -7.044264   -0.181548   -0.777415
     42          1           0       -5.796876   -1.618112   -2.456103
     43          1           0       -6.020190   -3.016204   -1.412270
     44          1           0       -7.435017   -2.243858   -2.167234
 ---------------------------------------------------------------------

 SCF Done:  E(UCAM-B3LYP) =  -1281.01511337     A.U. after   23 cycles

 Alpha  occ. eigenvalues --  -24.95093 -19.35286 -19.34485 -19.33468 -19.31306
 Alpha  occ. eigenvalues --  -19.27914 -19.26658 -14.67319 -14.59644 -10.55286
 Alpha  occ. eigenvalues --  -10.54352 -10.51915 -10.49639 -10.46875 -10.45187
 Alpha  occ. eigenvalues --  -10.43079 -10.39183 -10.38110 -10.36636 -10.36126
 Alpha  occ. eigenvalues --  -10.35709 -10.35240 -10.34159 -10.29783 -10.28517
 Alpha  occ. eigenvalues --   -1.46109  -1.30403  -1.25944  -1.24902  -1.23065
 Alpha  occ. eigenvalues --   -1.22239  -1.16071  -1.15821  -1.14616  -1.05638
 Alpha  occ. eigenvalues --   -0.99486  -0.97330  -0.92521  -0.91246  -0.90066
 Alpha  occ. eigenvalues --   -0.88384  -0.86148  -0.85052  -0.81375  -0.81058
 Alpha  occ. eigenvalues --   -0.78982  -0.77132  -0.74344  -0.73651  -0.73260
 Alpha  occ. eigenvalues --   -0.70399  -0.69608  -0.68680  -0.67615  -0.67275
 Alpha  occ. eigenvalues --   -0.66552  -0.64649  -0.64354  -0.63779  -0.63387
 Alpha  occ. eigenvalues --   -0.61906  -0.61198  -0.60619  -0.60017  -0.59420
 Alpha  occ. eigenvalues --   -0.58940  -0.58712  -0.58076  -0.57677  -0.56554
 Alpha  occ. eigenvalues --   -0.55894  -0.55408  -0.54554  -0.53359  -0.52215
 Alpha  occ. eigenvalues --   -0.51719  -0.50761  -0.50375  -0.49287  -0.48828
 Alpha  occ. eigenvalues --   -0.48737  -0.47511  -0.46546  -0.46418  -0.45925
 Alpha  occ. eigenvalues --   -0.45322  -0.43905  -0.42617  -0.41428  -0.40917
 Alpha  occ. eigenvalues --   -0.40855  -0.39497  -0.39310
 Alpha virt. eigenvalues --   -0.13523  -0.08213  -0.06998  -0.05306  -0.00837
 Alpha virt. eigenvalues --    0.03241   0.04594   0.06171   0.06514   0.07574
 Alpha virt. eigenvalues --    0.08675   0.10005   0.10435   0.11350   0.11525

  Beta  occ. eigenvalues --  -24.94770 -19.34884 -19.34085 -19.33467 -19.31306
  Beta  occ. eigenvalues --  -19.27887 -19.26658 -14.66445 -14.59717 -10.55420
  Beta  occ. eigenvalues --  -10.53679 -10.52058 -10.49678 -10.46871 -10.45188
  Beta  occ. eigenvalues --  -10.43107 -10.39181 -10.38048 -10.36635 -10.36137
  Beta  occ. eigenvalues --  -10.35711 -10.35240 -10.34153 -10.29783 -10.28517
  Beta  occ. eigenvalues --   -1.45385  -1.29681  -1.25300  -1.24885  -1.23064
  Beta  occ. eigenvalues --   -1.20995  -1.16028  -1.15575  -1.14612  -1.04261
  Beta  occ. eigenvalues --   -0.99024  -0.97297  -0.92366  -0.91035  -0.90045
  Beta  occ. eigenvalues --   -0.88312  -0.85771  -0.84905  -0.81294  -0.80750
  Beta  occ. eigenvalues --   -0.78941  -0.76860  -0.74240  -0.73546  -0.71261
  Beta  occ. eigenvalues --   -0.70171  -0.68455  -0.67796  -0.67360  -0.66801
  Beta  occ. eigenvalues --   -0.66269  -0.64331  -0.64072  -0.63363  -0.62865
  Beta  occ. eigenvalues --   -0.61780  -0.60928  -0.60350  -0.59576  -0.59189
  Beta  occ. eigenvalues --   -0.58683  -0.58149  -0.57917  -0.56635  -0.56286
  Beta  occ. eigenvalues --   -0.55717  -0.54727  -0.53691  -0.53044  -0.51999
  Beta  occ. eigenvalues --   -0.51279  -0.50742  -0.50291  -0.48940  -0.48763
  Beta  occ. eigenvalues --   -0.48626  -0.47439  -0.45975  -0.45371  -0.44598
  Beta  occ. eigenvalues --   -0.43899  -0.42594  -0.41355  -0.40860  -0.40804
  Beta  occ. eigenvalues --   -0.39470  -0.39276
  Beta virt. eigenvalues --   -0.27412  -0.11017  -0.07011  -0.06348  -0.05264
  Beta virt. eigenvalues --   -0.00200   0.04506   0.05149   0.06571   0.06708
  Beta virt. eigenvalues --    0.07597   0.08826   0.10298   0.10475   0.11369

 Mulliken charges and spin densities:
               1          2
     1  C   -0.339691   0.000029
     2  C    0.018410   0.000323
     3  O   -0.491770   0.000089
     4  C    0.640111   0.000806
     5  O   -0.471064   0.009728
     6  C    0.035521   0.028696
     7  C   -0.225069  -0.006690
     8  C   -0.130531  -0.021137
     9  N   -0.464488   0.385604
    10  C    0.180828  -0.027242
    11  C    0.355897   0.415587
    12  C    0.625750  -0.092491
    13  O   -0.398181   0.159035
    14  N   -0.594657  -0.024648
    15  C    0.837310  -0.076711
    16  O   -0.403542   0.156900
    17  C   -0.112088   0.001085
    18  C    0.054814  -0.001231
    19  C   -0.237154   0.004242
    20  C    0.641705  -0.000159
    21  O   -0.488207  -0.000015
    22  O   -0.484258   0.000031
    23  C    0.022590  -0.000027
    24  C   -0.337824   0.000012
    25  F   -0.185306   0.075190
    26  H    0.135882   0.000037
    27  H    0.116562  -0.000002
    28  H    0.133119  -0.000005
    29  H    0.134783  -0.000025
    30  H    0.151061  -0.000036
    31  H    0.187126   0.000363
    32  H    0.112080   0.000173
    33  H    0.228722   0.006614
    34  H    0.194426   0.008217
    35  H    0.253171  -0.000596
    36  H    0.195921  -0.000689
    37  H    0.198031  -0.000707
    38  H    0.091738  -0.000168
    39  H    0.169271  -0.000181
    40  H    0.130080  -0.000001
    41  H    0.140567   0.000003
    42  H    0.129261  -0.000001
    43  H    0.121878   0.000000
    44  H    0.127215   0.000001
 Sum of Mulliken charges =   1.00000   1.00000

 Dipole moment (field-independent basis, Debye):
    X=              4.9349    Y=              1.7815    Z=              6.3683  Tot=              8.2512
 Quadrupole moment (field-independent basis, Debye-Ang):
   XX=            -95.7783   YY=           -125.5143   ZZ=           -132.8349
   XY=              6.3250   XZ=              9.6068   YZ=              6.4841

 Normal termination of Gaussian 09 at Mon Mar  4 22:57:28 2024.
