 Gaussian 09, Revision D.01,
 Gaussian 09:  ES64L-G09RevD.01 24-Apr-2013

 ----------------------------------------------------------------------
 #p CAM-B3LYP/6-31G(d,p) SCRF=(PCM,Solvent=Generic,Read) NoSymm out=wfn
 ----------------------------------------------------------------------

 ---------------
 Title A949150_0
 ---------------
 Symbolic Z-matrix:
 Charge =  0 Multiplicity = 1

                          Input orientation:
 ---------------------------------------------------------------------
 Center     Atomic      Atomic             Coordinates (Angstroms)
 Number     Number       Type             X           Y           Z
 ---------------------------------------------------------------------
      1          6           0       -3.307583   -2.049711   -0.955795
      2          6           0       -1.984533   -2.754482   -0.849198
      3          6           0       -1.548874   -3.570507   -1.824660
      4          6           0       -1.197307   -2.544525    0.429085
      5          7           0       -0.504990   -1.262193    0.385197
      6          6           0        0.758794   -1.227798   -0.169068
      7          8           0        1.301621   -2.238763   -0.621820
      8          7           0        1.390758   -0.001310   -0.169898
      9          6           0        0.820568    1.156375    0.318262
     10          8           0        1.417551    2.235568    0.292742
     11          7           0       -0.445510    1.033433    0.854429
     12          6           0       -1.111119   -0.168531    0.965340
     13          8           0       -2.187580   -0.262393    1.560993
     14          6           0       -1.073635    2.228527    1.404712
     15          6           0       -1.836425    2.961807    0.319231
     16          6           0       -1.350853    4.072250   -0.262455
     17          6           0       -3.191722    2.422008   -0.041758
     18          6           0        2.734110    0.078162   -0.728979
     19          6           0        3.825969   -0.161081    0.303100
     20          6           0        3.644203   -0.423569    1.610293
     21          6           0        5.219736   -0.081168   -0.264476
     22          1           0       -3.864608   -2.357180   -1.847408
     23          1           0       -3.932021   -2.273899   -0.085052
     24          1           0       -3.162823   -0.967660   -1.015930
     25          1           0       -0.595029   -4.086882   -1.747069
     26          1           0       -2.121373   -3.734232   -2.732606
     27          1           0       -0.466064   -3.350585    0.567785
     28          1           0       -1.870762   -2.598786    1.292296
     29          1           0       -1.752295    1.973331    2.226852
     30          1           0       -0.304673    2.878194    1.840965
     31          1           0       -0.373356    4.468725    0.001723
     32          1           0       -1.905252    4.607157   -1.027597
     33          1           0       -3.100326    1.444473   -0.522882
     34          1           0       -3.723689    3.081779   -0.735660
     35          1           0       -3.813055    2.317504    0.853452
     36          1           0        2.882629    1.065633   -1.182295
     37          1           0        2.837961   -0.658502   -1.534705
     38          1           0        2.663677   -0.491535    2.067048
     39          1           0        4.488854   -0.581440    2.275607
     40          1           0        5.352605   -0.831670   -1.050587
     41          1           0        5.397715    0.909886   -0.694607
     42          1           0        5.988704   -0.256408    0.495393
 ---------------------------------------------------------------------

 SCF Done:  E(RCAM-B3LYP) =  -973.736768545     A.U. after   13 cycles

 Alpha  occ. eigenvalues --  -19.21641 -19.21541 -19.21536 -14.48545 -14.48543
 Alpha  occ. eigenvalues --  -14.48515 -10.42944 -10.42854 -10.42850 -10.31248
 Alpha  occ. eigenvalues --  -10.30767 -10.30764 -10.27946 -10.27382 -10.27378
 Alpha  occ. eigenvalues --  -10.25604 -10.25251 -10.25248 -10.25139 -10.25108
 Alpha  occ. eigenvalues --  -10.25104  -1.19613  -1.14899  -1.14757  -1.06447
 Alpha  occ. eigenvalues --   -1.04074  -1.04047  -0.90382  -0.88909  -0.88811
 Alpha  occ. eigenvalues --   -0.81801  -0.80313  -0.80080  -0.76426  -0.76413
 Alpha  occ. eigenvalues --   -0.76215  -0.73699  -0.73399  -0.70913  -0.64093
 Alpha  occ. eigenvalues --   -0.62347  -0.60987  -0.59795  -0.58620  -0.55970
 Alpha  occ. eigenvalues --   -0.55317  -0.54583  -0.53656  -0.53370  -0.53168
 Alpha  occ. eigenvalues --   -0.52959  -0.51236  -0.51014  -0.50095  -0.49822
 Alpha  occ. eigenvalues --   -0.49135  -0.48700  -0.47952  -0.47377  -0.47108
 Alpha  occ. eigenvalues --   -0.45825  -0.44219  -0.43876  -0.43873  -0.43181
 Alpha  occ. eigenvalues --   -0.43084  -0.41657  -0.41388  -0.41065  -0.37787
 Alpha  occ. eigenvalues --   -0.37591  -0.35227  -0.34492  -0.34295  -0.33631
 Alpha  occ. eigenvalues --   -0.31153  -0.30860  -0.30734
 Alpha virt. eigenvalues --    0.03528   0.03723   0.06359   0.07007   0.07131
 Alpha virt. eigenvalues --    0.12896   0.14589   0.14890   0.16421   0.16667
 Alpha virt. eigenvalues --    0.16762   0.17419   0.18665   0.19275   0.19665

 Mulliken charges:
               1
     1  C   -0.354435
     2  C    0.132998
     3  C   -0.273826
     4  C   -0.118616
     5  N   -0.554802
     6  C    0.813678
     7  O   -0.519795
     8  N   -0.572869
     9  C    0.813529
    10  O   -0.519950
    11  N   -0.554699
    12  C    0.817881
    13  O   -0.533261
    14  C   -0.118580
    15  C    0.132914
    16  C   -0.273829
    17  C   -0.354496
    18  C   -0.087878
    19  C    0.150134
    20  C   -0.278571
    21  C   -0.368835
    22  H    0.111303
    23  H    0.124166
    24  H    0.120791
    25  H    0.114646
    26  H    0.100526
    27  H    0.150813
    28  H    0.154515
    29  H    0.154486
    30  H    0.150815
    31  H    0.114607
    32  H    0.100551
    33  H    0.120855
    34  H    0.111318
    35  H    0.124179
    36  H    0.157771
    37  H    0.157845
    38  H    0.083943
    39  H    0.104072
    40  H    0.123274
    41  H    0.123301
    42  H    0.119532
 Sum of Mulliken charges =   0.00000

 Dipole moment (field-independent basis, Debye):
    X=             -0.0665    Y=              0.0939    Z=             -0.4684  Tot=              0.4823
 Quadrupole moment (field-independent basis, Debye-Ang):
   XX=           -119.1684   YY=           -130.2464   ZZ=           -121.6501
   XY=             -0.7718   XZ=              2.2916   YZ=             -1.8998

 Normal termination of Gaussian 09 at Mon Mar  4 22:07:49 2024.
