 Gaussian 09, Revision D.01,
 Gaussian 09:  ES64L-G09RevD.01 24-Apr-2013

 ----------------------------------------------------------------------
 #p CAM-B3LYP/6-31G(d,p) SCRF=(PCM,Solvent=Generic,Read) NoSymm out=wfn
 ----------------------------------------------------------------------

 ----------------
 Title A949150_p1
 ----------------
 Symbolic Z-matrix:
 Charge =  1 Multiplicity = 2

                          Input orientation:
 ---------------------------------------------------------------------
 Center     Atomic      Atomic             Coordinates (Angstroms)
 Number     Number       Type             X           Y           Z
 ---------------------------------------------------------------------
      1          6           0       -3.307583   -2.049711   -0.955795
      2          6           0       -1.984533   -2.754482   -0.849198
      3          6           0       -1.548874   -3.570507   -1.824660
      4          6           0       -1.197307   -2.544525    0.429085
      5          7           0       -0.504990   -1.262193    0.385197
      6          6           0        0.758794   -1.227798   -0.169068
      7          8           0        1.301621   -2.238763   -0.621820
      8          7           0        1.390758   -0.001310   -0.169898
      9          6           0        0.820568    1.156375    0.318262
     10          8           0        1.417551    2.235568    0.292742
     11          7           0       -0.445510    1.033433    0.854429
     12          6           0       -1.111119   -0.168531    0.965340
     13          8           0       -2.187580   -0.262393    1.560993
     14          6           0       -1.073635    2.228527    1.404712
     15          6           0       -1.836425    2.961807    0.319231
     16          6           0       -1.350853    4.072250   -0.262455
     17          6           0       -3.191722    2.422008   -0.041758
     18          6           0        2.734110    0.078162   -0.728979
     19          6           0        3.825969   -0.161081    0.303100
     20          6           0        3.644203   -0.423569    1.610293
     21          6           0        5.219736   -0.081168   -0.264476
     22          1           0       -3.864608   -2.357180   -1.847408
     23          1           0       -3.932021   -2.273899   -0.085052
     24          1           0       -3.162823   -0.967660   -1.015930
     25          1           0       -0.595029   -4.086882   -1.747069
     26          1           0       -2.121373   -3.734232   -2.732606
     27          1           0       -0.466064   -3.350585    0.567785
     28          1           0       -1.870762   -2.598786    1.292296
     29          1           0       -1.752295    1.973331    2.226852
     30          1           0       -0.304673    2.878194    1.840965
     31          1           0       -0.373356    4.468725    0.001723
     32          1           0       -1.905252    4.607157   -1.027597
     33          1           0       -3.100326    1.444473   -0.522882
     34          1           0       -3.723689    3.081779   -0.735660
     35          1           0       -3.813055    2.317504    0.853452
     36          1           0        2.882629    1.065633   -1.182295
     37          1           0        2.837961   -0.658502   -1.534705
     38          1           0        2.663677   -0.491535    2.067048
     39          1           0        4.488854   -0.581440    2.275607
     40          1           0        5.352605   -0.831670   -1.050587
     41          1           0        5.397715    0.909886   -0.694607
     42          1           0        5.988704   -0.256408    0.495393
 ---------------------------------------------------------------------

 SCF Done:  E(UCAM-B3LYP) =  -973.435792216     A.U. after   44 cycles

 Alpha  occ. eigenvalues --  -19.29012 -19.28407 -19.28403 -14.56470 -14.56464
 Alpha  occ. eigenvalues --  -14.54926 -10.50399 -10.49683 -10.49680 -10.40194
 Alpha  occ. eigenvalues --  -10.40175 -10.39156 -10.39149 -10.38263 -10.38244
 Alpha  occ. eigenvalues --  -10.36258 -10.34195 -10.34186 -10.32156 -10.29286
 Alpha  occ. eigenvalues --  -10.29188  -1.26817  -1.21977  -1.21727  -1.13612
 Alpha  occ. eigenvalues --   -1.11841  -1.10822  -1.00867  -1.00087  -0.94091
 Alpha  occ. eigenvalues --   -0.90266  -0.88446  -0.86984  -0.86769  -0.86334
 Alpha  occ. eigenvalues --   -0.81469  -0.80631  -0.80164  -0.78111  -0.72658
 Alpha  occ. eigenvalues --   -0.70773  -0.69644  -0.66944  -0.65404  -0.64186
 Alpha  occ. eigenvalues --   -0.63738  -0.63177  -0.61749  -0.61704  -0.60693
 Alpha  occ. eigenvalues --   -0.60254  -0.58643  -0.58555  -0.57998  -0.57294
 Alpha  occ. eigenvalues --   -0.56701  -0.56422  -0.54899  -0.54778  -0.53291
 Alpha  occ. eigenvalues --   -0.52910  -0.52437  -0.52088  -0.51451  -0.50906
 Alpha  occ. eigenvalues --   -0.50859  -0.50053  -0.47715  -0.45772  -0.45339
 Alpha  occ. eigenvalues --   -0.44902  -0.43656  -0.43365  -0.42411  -0.42152
 Alpha  occ. eigenvalues --   -0.40642  -0.40591  -0.34901
 Alpha virt. eigenvalues --   -0.05849  -0.05111  -0.03082  -0.02986   0.02977
 Alpha virt. eigenvalues --    0.05186   0.07389   0.08832   0.08838   0.09772
 Alpha virt. eigenvalues --    0.10120   0.10706   0.11687   0.11795   0.13255

  Beta  occ. eigenvalues --  -19.29013 -19.28382 -19.28378 -14.56411 -14.56405
  Beta  occ. eigenvalues --  -14.54920 -10.50406 -10.49688 -10.49684 -10.39992
  Beta  occ. eigenvalues --  -10.39974 -10.39165 -10.39159 -10.37811 -10.37793
  Beta  occ. eigenvalues --  -10.36259 -10.34179 -10.34171 -10.32156 -10.29286
  Beta  occ. eigenvalues --  -10.29188  -1.26763  -1.21959  -1.21668  -1.13549
  Beta  occ. eigenvalues --   -1.11710  -1.10774  -0.99987  -0.99076  -0.94035
  Beta  occ. eigenvalues --   -0.89935  -0.88154  -0.86579  -0.86078  -0.85965
  Beta  occ. eigenvalues --   -0.81301  -0.80599  -0.80144  -0.78061  -0.72314
  Beta  occ. eigenvalues --   -0.70322  -0.69431  -0.66689  -0.65333  -0.63714
  Beta  occ. eigenvalues --   -0.63398  -0.62968  -0.61584  -0.61507  -0.60587
  Beta  occ. eigenvalues --   -0.60209  -0.58550  -0.58487  -0.57853  -0.56607
  Beta  occ. eigenvalues --   -0.56360  -0.55800  -0.54829  -0.54687  -0.53095
  Beta  occ. eigenvalues --   -0.52772  -0.52299  -0.51868  -0.51424  -0.50825
  Beta  occ. eigenvalues --   -0.50767  -0.50039  -0.47690  -0.45755  -0.44803
  Beta  occ. eigenvalues --   -0.44201  -0.42442  -0.41935  -0.40770  -0.40444
  Beta  occ. eigenvalues --   -0.35223  -0.34900
  Beta virt. eigenvalues --   -0.29320  -0.03932  -0.03271  -0.02286  -0.01833
  Beta virt. eigenvalues --    0.02978   0.05263   0.07521   0.08919   0.09008
  Beta virt. eigenvalues --    0.09813   0.10185   0.10758   0.11820   0.11944

 Mulliken charges and spin densities:
               1          2
     1  C   -0.367564  -0.000213
     2  C    0.162710   0.146134
     3  C   -0.179817   0.331378
     4  C   -0.124256  -0.012217
     5  N   -0.561825   0.025064
     6  C    0.822081  -0.003406
     7  O   -0.500954   0.009833
     8  N   -0.572094   0.002613
     9  C    0.822104  -0.003403
    10  O   -0.500892   0.009827
    11  N   -0.561677   0.025016
    12  C    0.827059  -0.004343
    13  O   -0.517174  -0.000299
    14  C   -0.124143  -0.012189
    15  C    0.162723   0.145713
    16  C   -0.179979   0.330750
    17  C   -0.367592  -0.000198
    18  C   -0.095633  -0.000267
    19  C    0.146182   0.000015
    20  C   -0.275895  -0.000016
    21  C   -0.368839  -0.000008
    22  H    0.151881   0.000092
    23  H    0.178415   0.014134
    24  H    0.153119   0.017741
    25  H    0.186177  -0.014187
    26  H    0.174834  -0.014182
    27  H    0.185228   0.000166
    28  H    0.192199   0.001393
    29  H    0.192144   0.001388
    30  H    0.184985   0.000165
    31  H    0.186064  -0.014161
    32  H    0.174628  -0.014157
    33  H    0.153032   0.017689
    34  H    0.151746   0.000091
    35  H    0.178324   0.014095
    36  H    0.166066  -0.000023
    37  H    0.166057  -0.000023
    38  H    0.076231  -0.000002
    39  H    0.118731   0.000000
    40  H    0.127758   0.000000
    41  H    0.127841   0.000000
    42  H    0.130014  -0.000004
 Sum of Mulliken charges =   1.00000   1.00000

 Dipole moment (field-independent basis, Debye):
    X=             -7.4247    Y=              0.7344    Z=             -2.7249  Tot=              7.9429
 Quadrupole moment (field-independent basis, Debye-Ang):
   XX=            -91.1832   YY=            -75.9560   ZZ=           -110.8083
   XY=             -0.9707   XZ=              7.0034   YZ=              7.2510

 Normal termination of Gaussian 09 at Mon Mar  4 22:10:09 2024.
