 Gaussian 09, Revision D.01,
 Gaussian 09:  ES64L-G09RevD.01 24-Apr-2013

 ----------------------------------------------------------------------
 #p CAM-B3LYP/6-31G(d,p) SCRF=(PCM,Solvent=Generic,Read) NoSymm out=wfn
 ----------------------------------------------------------------------

 -------------------
 Title A126125651_p1
 -------------------
 Symbolic Z-matrix:
 Charge =  1 Multiplicity = 2

                          Input orientation:
 ---------------------------------------------------------------------
 Center     Atomic      Atomic             Coordinates (Angstroms)
 Number     Number       Type             X           Y           Z
 ---------------------------------------------------------------------
      1          6           0       -4.947961   -3.160195   -0.096023
      2          6           0       -4.890032   -1.659356    0.142685
      3          6           0       -3.478270   -1.140946    0.420541
      4          6           0       -2.533800   -1.284389   -0.777483
      5          7           0       -1.229753   -0.674648   -0.507480
      6          6           0       -0.286458   -1.414033    0.176097
      7          8           0       -0.439511   -2.613651    0.393948
      8          7           0        0.824868   -0.724974    0.592433
      9          6           0        1.826415   -1.468647    1.348481
     10          9           0        2.552698   -0.589662    2.098100
     11          9           0        1.186662   -2.222419    2.287873
     12          6           0        2.776322   -2.350570    0.497760
     13          9           0        2.050229   -3.329738   -0.116867
     14          8           0        3.326827   -1.567718   -0.568248
     15          6           0        4.380096   -2.207769   -1.239281
     16          9           0        5.494559   -2.129662   -0.495799
     17          9           0        4.590322   -1.571352   -2.406041
     18          9           0        4.080297   -3.490131   -1.495419
     19          6           0        3.757925   -2.975821    1.499096
     20          9           0        4.561968   -3.888726    0.901758
     21          9           0        3.138347   -3.625777    2.507983
     22          9           0        4.570879   -2.049184    2.053815
     23          6           0        1.196810    0.464786    0.015985
     24          8           0        2.323996    0.930171    0.159871
     25          7           0        0.245425    1.111618   -0.734825
     26          6           0        0.558898    2.439684   -1.241201
     27          9           0        1.773661    2.347273   -1.877974
     28          9           0       -0.281000    2.770689   -2.267370
     29          6           0        0.628692    3.626557   -0.242000
     30          9           0        1.514165    3.329530    0.754264
     31          8           0        1.184215    4.749329   -0.948267
     32          6           0        1.171048    5.939128   -0.206868
     33          9           0        2.046200    6.799485   -0.758791
     34          9           0        1.516576    5.727012    1.071996
     35          9           0       -0.057849    6.478645   -0.269666
     36          6           0       -0.761115    3.823126    0.366560
     37          9           0       -1.685339    4.158168   -0.554194
     38          9           0       -1.181672    2.704902    1.005700
     39          9           0       -0.765806    4.800377    1.304064
     40          6           0       -1.041239    0.649812   -0.839399
     41          8           0       -1.973348    1.372784   -1.183095
     42          1           0       -4.428368   -3.440509   -1.016877
     43          1           0       -4.497258   -3.708504    0.737214
     44          1           0       -5.989027   -3.485095   -0.191689
     45          1           0       -5.524007   -1.419193    1.004558
     46          1           0       -5.317102   -1.135476   -0.720308
     47          1           0       -3.549058   -0.082515    0.701094
     48          1           0       -3.058946   -1.660212    1.291135
     49          1           0       -2.976844   -0.810371   -1.661339
     50          1           0       -2.384342   -2.341830   -1.020651
 ---------------------------------------------------------------------

 SCF Done:  E(UCAM-B3LYP) =  -2913.36781261     A.U. after   33 cycles

 Alpha  occ. eigenvalues --  -24.87685 -24.87336 -24.87115 -24.86681 -24.86459
 Alpha  occ. eigenvalues --  -24.86137 -24.85930 -24.85750 -24.85719 -24.85620
 Alpha  occ. eigenvalues --  -24.85564 -24.85533 -24.85441 -24.85392 -24.85168
 Alpha  occ. eigenvalues --  -24.85110 -24.84994 -24.84843 -19.36039 -19.35901
 Alpha  occ. eigenvalues --  -19.35385 -19.35360 -19.30029 -14.66998 -14.60016
 Alpha  occ. eigenvalues --  -14.59653 -10.61828 -10.61433 -10.58727 -10.57851
 Alpha  occ. eigenvalues --  -10.57814 -10.57799 -10.55261 -10.54976 -10.52610
 Alpha  occ. eigenvalues --  -10.52378 -10.52292 -10.41312 -10.34578 -10.31162
 Alpha  occ. eigenvalues --  -10.28396  -1.45678  -1.45399  -1.44468  -1.44134
 Alpha  occ. eigenvalues --   -1.42839  -1.42720  -1.38890  -1.38676  -1.36601
 Alpha  occ. eigenvalues --   -1.35966  -1.35622  -1.35507  -1.35309  -1.35274
 Alpha  occ. eigenvalues --   -1.35004  -1.34566  -1.34556  -1.34239  -1.32771
 Alpha  occ. eigenvalues --   -1.28034  -1.25541  -1.23376  -1.22830  -1.20310
 Alpha  occ. eigenvalues --   -1.16036  -1.15781  -0.98772  -0.96945  -0.96812
 Alpha  occ. eigenvalues --   -0.91869  -0.91149  -0.90292  -0.85977  -0.85340
 Alpha  occ. eigenvalues --   -0.84442  -0.83789  -0.82885  -0.80949  -0.79313
 Alpha  occ. eigenvalues --   -0.79052  -0.76787  -0.75841  -0.75471  -0.74931
 Alpha  occ. eigenvalues --   -0.73857  -0.73420  -0.73101  -0.72765  -0.72074
 Alpha  occ. eigenvalues --   -0.71648  -0.71341  -0.70995  -0.70786  -0.70618
 Alpha  occ. eigenvalues --   -0.70214  -0.69644  -0.69215  -0.68917  -0.68324
 Alpha  occ. eigenvalues --   -0.67893  -0.67715  -0.65191  -0.64027  -0.63086
 Alpha  occ. eigenvalues --   -0.62921  -0.62581  -0.62236  -0.61097  -0.60359
 Alpha  occ. eigenvalues --   -0.60026  -0.59788  -0.59609  -0.59542  -0.59076
 Alpha  occ. eigenvalues --   -0.58885  -0.58730  -0.58617  -0.58124  -0.57930
 Alpha  occ. eigenvalues --   -0.57757  -0.57645  -0.57505  -0.56846  -0.56755
 Alpha  occ. eigenvalues --   -0.56476  -0.56121  -0.55450  -0.55215  -0.55044
 Alpha  occ. eigenvalues --   -0.54789  -0.54653  -0.54379  -0.54279  -0.54098
 Alpha  occ. eigenvalues --   -0.53772  -0.53608  -0.53369  -0.53056  -0.52968
 Alpha  occ. eigenvalues --   -0.52720  -0.52584  -0.52139  -0.51781  -0.51661
 Alpha  occ. eigenvalues --   -0.51377  -0.51106  -0.50605  -0.50095  -0.49720
 Alpha  occ. eigenvalues --   -0.49188  -0.48953  -0.47984  -0.47736  -0.47255
 Alpha  occ. eigenvalues --   -0.46467  -0.45289  -0.44961  -0.44410  -0.44144
 Alpha  occ. eigenvalues --   -0.42986
 Alpha virt. eigenvalues --   -0.08837  -0.06661   0.00993   0.01604   0.02392
 Alpha virt. eigenvalues --    0.03840   0.06149   0.07446   0.09020   0.10052
 Alpha virt. eigenvalues --    0.10845   0.11607   0.12465   0.12988   0.13655

  Beta  occ. eigenvalues --  -24.87681 -24.87320 -24.87109 -24.86680 -24.86460
  Beta  occ. eigenvalues --  -24.86135 -24.85930 -24.85750 -24.85718 -24.85620
  Beta  occ. eigenvalues --  -24.85563 -24.85533 -24.85441 -24.85392 -24.85168
  Beta  occ. eigenvalues --  -24.85110 -24.84994 -24.84843 -19.35901 -19.35385
  Beta  occ. eigenvalues --  -19.35376 -19.34774 -19.30021 -14.65848 -14.60032
  Beta  occ. eigenvalues --  -14.59680 -10.61828 -10.61433 -10.58727 -10.57851
  Beta  occ. eigenvalues --  -10.57814 -10.57799 -10.55469 -10.55181 -10.52619
  Beta  occ. eigenvalues --  -10.52379 -10.52293 -10.41235 -10.34390 -10.31119
  Beta  occ. eigenvalues --  -10.28386  -1.45676  -1.45399  -1.44467  -1.44132
  Beta  occ. eigenvalues --   -1.42832  -1.42703  -1.38886  -1.38674  -1.36594
  Beta  occ. eigenvalues --   -1.35957  -1.35622  -1.35505  -1.35308  -1.35273
  Beta  occ. eigenvalues --   -1.34988  -1.34565  -1.34554  -1.34239  -1.31877
  Beta  occ. eigenvalues --   -1.27120  -1.25214  -1.23369  -1.22828  -1.18440
  Beta  occ. eigenvalues --   -1.15633  -1.15496  -0.98451  -0.96901  -0.96472
  Beta  occ. eigenvalues --   -0.91551  -0.90988  -0.90166  -0.85898  -0.85202
  Beta  occ. eigenvalues --   -0.84229  -0.83641  -0.82823  -0.80677  -0.79124
  Beta  occ. eigenvalues --   -0.79043  -0.76690  -0.75828  -0.75366  -0.74892
  Beta  occ. eigenvalues --   -0.73795  -0.73297  -0.72823  -0.72066  -0.71929
  Beta  occ. eigenvalues --   -0.71502  -0.71321  -0.70944  -0.70754  -0.70231
  Beta  occ. eigenvalues --   -0.70112  -0.69612  -0.69199  -0.68598  -0.68002
  Beta  occ. eigenvalues --   -0.67634  -0.67169  -0.64520  -0.63418  -0.62939
  Beta  occ. eigenvalues --   -0.62721  -0.61899  -0.61089  -0.60695  -0.60224
  Beta  occ. eigenvalues --   -0.59980  -0.59656  -0.59540  -0.59436  -0.59055
  Beta  occ. eigenvalues --   -0.58847  -0.58689  -0.58529  -0.58053  -0.57785
  Beta  occ. eigenvalues --   -0.57687  -0.57541  -0.57205  -0.56788  -0.56534
  Beta  occ. eigenvalues --   -0.56112  -0.55976  -0.55422  -0.55140  -0.55004
  Beta  occ. eigenvalues --   -0.54744  -0.54371  -0.54211  -0.54162  -0.53874
  Beta  occ. eigenvalues --   -0.53641  -0.53373  -0.53056  -0.52892  -0.52735
  Beta  occ. eigenvalues --   -0.52612  -0.52417  -0.52134  -0.51638  -0.51633
  Beta  occ. eigenvalues --   -0.51355  -0.51094  -0.49903  -0.49082  -0.48979
  Beta  occ. eigenvalues --   -0.48440  -0.47614  -0.47267  -0.47222  -0.45722
  Beta  occ. eigenvalues --   -0.44944  -0.44696  -0.44077  -0.43924  -0.42681
  Beta virt. eigenvalues --   -0.29245  -0.07718  -0.05582   0.01528   0.01783
  Beta virt. eigenvalues --    0.02410   0.03919   0.06375   0.07671   0.09065
  Beta virt. eigenvalues --    0.10252   0.11037   0.11700   0.12542   0.13129

 Mulliken charges and spin densities:
               1          2
     1  C   -0.335812   0.004938
     2  C   -0.202998   0.022736
     3  C   -0.211958   0.099865
     4  C   -0.100763   0.036349
     5  N   -0.465256   0.522530
     6  C    0.880857  -0.117152
     7  O   -0.372730   0.233005
     8  N   -0.660953  -0.006557
     9  C    0.762473  -0.000557
    10  F   -0.238752   0.000268
    11  F   -0.246941   0.001320
    12  C    0.439259   0.000005
    13  F   -0.254162   0.000322
    14  O   -0.510463   0.000149
    15  C    1.001887   0.000000
    16  F   -0.237771  -0.000001
    17  F   -0.235272   0.000001
    18  F   -0.240264   0.000004
    19  C    0.821427  -0.000105
    20  F   -0.253037   0.000025
    21  F   -0.240859   0.000038
    22  F   -0.240855  -0.000002
    23  C    0.892256  -0.003985
    24  O   -0.436059   0.003357
    25  N   -0.649114  -0.001962
    26  C    0.749485  -0.000320
    27  F   -0.249143   0.000278
    28  F   -0.238973   0.003207
    29  C    0.443258  -0.000372
    30  F   -0.249576   0.000073
    31  O   -0.506918   0.000083
    32  C    1.001761   0.000005
    33  F   -0.233676   0.000012
    34  F   -0.240589   0.000011
    35  F   -0.243009   0.000002
    36  C    0.817827  -0.000183
    37  F   -0.230586  -0.000021
    38  F   -0.256793   0.000819
    39  F   -0.244982   0.000056
    40  C    0.889183  -0.120829
    41  O   -0.365282   0.259448
    42  H    0.122141   0.005580
    43  H    0.130158  -0.000342
    44  H    0.140627   0.003357
    45  H    0.164529   0.026664
    46  H    0.141356   0.000358
    47  H    0.166780  -0.001768
    48  H    0.167240  -0.002520
    49  H    0.227496   0.010518
    50  H    0.233547   0.021296
 Sum of Mulliken charges =   1.00000   1.00000

 Dipole moment (field-independent basis, Debye):
    X=             -9.7443    Y=             -4.1719    Z=             -1.6286  Tot=             10.7242
 Quadrupole moment (field-independent basis, Debye-Ang):
   XX=           -183.6021   YY=           -207.5345   ZZ=           -212.0872
   XY=             12.4074   XZ=              0.2418   YZ=              4.3674

 Normal termination of Gaussian 09 at Sun Mar  3 17:30:59 2024.
