 Gaussian 09, Revision D.01,
 Gaussian 09:  ES64L-G09RevD.01 24-Apr-2013

 ----------------------------------------------------------------------
 #p CAM-B3LYP/6-31G(d,p) SCRF=(PCM,Solvent=Generic,Read) NoSymm out=wfn
 ----------------------------------------------------------------------

 ------------------
 Title A126125651_0
 ------------------
 Symbolic Z-matrix:
 Charge =  0 Multiplicity = 1

                          Input orientation:
 ---------------------------------------------------------------------
 Center     Atomic      Atomic             Coordinates (Angstroms)
 Number     Number       Type             X           Y           Z
 ---------------------------------------------------------------------
      1          6           0       -4.947961   -3.160195   -0.096023
      2          6           0       -4.890032   -1.659356    0.142685
      3          6           0       -3.478270   -1.140946    0.420541
      4          6           0       -2.533800   -1.284389   -0.777483
      5          7           0       -1.229753   -0.674648   -0.507480
      6          6           0       -0.286458   -1.414033    0.176097
      7          8           0       -0.439511   -2.613651    0.393948
      8          7           0        0.824868   -0.724974    0.592433
      9          6           0        1.826415   -1.468647    1.348481
     10          9           0        2.552698   -0.589662    2.098100
     11          9           0        1.186662   -2.222419    2.287873
     12          6           0        2.776322   -2.350570    0.497760
     13          9           0        2.050229   -3.329738   -0.116867
     14          8           0        3.326827   -1.567718   -0.568248
     15          6           0        4.380096   -2.207769   -1.239281
     16          9           0        5.494559   -2.129662   -0.495799
     17          9           0        4.590322   -1.571352   -2.406041
     18          9           0        4.080297   -3.490131   -1.495419
     19          6           0        3.757925   -2.975821    1.499096
     20          9           0        4.561968   -3.888726    0.901758
     21          9           0        3.138347   -3.625777    2.507983
     22          9           0        4.570879   -2.049184    2.053815
     23          6           0        1.196810    0.464786    0.015985
     24          8           0        2.323996    0.930171    0.159871
     25          7           0        0.245425    1.111618   -0.734825
     26          6           0        0.558898    2.439684   -1.241201
     27          9           0        1.773661    2.347273   -1.877974
     28          9           0       -0.281000    2.770689   -2.267370
     29          6           0        0.628692    3.626557   -0.242000
     30          9           0        1.514165    3.329530    0.754264
     31          8           0        1.184215    4.749329   -0.948267
     32          6           0        1.171048    5.939128   -0.206868
     33          9           0        2.046200    6.799485   -0.758791
     34          9           0        1.516576    5.727012    1.071996
     35          9           0       -0.057849    6.478645   -0.269666
     36          6           0       -0.761115    3.823126    0.366560
     37          9           0       -1.685339    4.158168   -0.554194
     38          9           0       -1.181672    2.704902    1.005700
     39          9           0       -0.765806    4.800377    1.304064
     40          6           0       -1.041239    0.649812   -0.839399
     41          8           0       -1.973348    1.372784   -1.183095
     42          1           0       -4.428368   -3.440509   -1.016877
     43          1           0       -4.497258   -3.708504    0.737214
     44          1           0       -5.989027   -3.485095   -0.191689
     45          1           0       -5.524007   -1.419193    1.004558
     46          1           0       -5.317102   -1.135476   -0.720308
     47          1           0       -3.549058   -0.082515    0.701094
     48          1           0       -3.058946   -1.660212    1.291135
     49          1           0       -2.976844   -0.810371   -1.661339
     50          1           0       -2.384342   -2.341830   -1.020651
 ---------------------------------------------------------------------

 SCF Done:  E(RCAM-B3LYP) =  -2913.69266005     A.U. after   13 cycles

 Alpha  occ. eigenvalues --  -24.84261 -24.83768 -24.83677 -24.83617 -24.83558
 Alpha  occ. eigenvalues --  -24.83541 -24.83492 -24.83447 -24.83253 -24.83125
 Alpha  occ. eigenvalues --  -24.83123 -24.83086 -24.83048 -24.83034 -24.82996
 Alpha  occ. eigenvalues --  -24.82948 -24.82836 -24.81914 -19.33215 -19.32983
 Alpha  occ. eigenvalues --  -19.24370 -19.23993 -19.23983 -14.53297 -14.53113
 Alpha  occ. eigenvalues --  -14.50426 -10.59717 -10.59551 -10.55809 -10.55522
 Alpha  occ. eigenvalues --  -10.53593 -10.53533 -10.49215 -10.49161 -10.46980
 Alpha  occ. eigenvalues --  -10.45755 -10.45741 -10.31546 -10.26403 -10.25794
 Alpha  occ. eigenvalues --  -10.24653  -1.43366  -1.43288  -1.42108  -1.41854
 Alpha  occ. eigenvalues --   -1.39240  -1.38694  -1.35806  -1.35795  -1.33680
 Alpha  occ. eigenvalues --   -1.33541  -1.33479  -1.33417  -1.33154  -1.32885
 Alpha  occ. eigenvalues --   -1.32511  -1.32243  -1.31724  -1.31092  -1.23405
 Alpha  occ. eigenvalues --   -1.20748  -1.20447  -1.17973  -1.17964  -1.10138
 Alpha  occ. eigenvalues --   -1.08714  -1.06606  -0.94088  -0.93442  -0.89517
 Alpha  occ. eigenvalues --   -0.86087  -0.84219  -0.83485  -0.82725  -0.82139
 Alpha  occ. eigenvalues --   -0.78949  -0.78833  -0.76979  -0.75990  -0.74800
 Alpha  occ. eigenvalues --   -0.74269  -0.73123  -0.72937  -0.72223  -0.71860
 Alpha  occ. eigenvalues --   -0.70719  -0.70598  -0.69964  -0.69706  -0.69086
 Alpha  occ. eigenvalues --   -0.68787  -0.68505  -0.67640  -0.67284  -0.66880
 Alpha  occ. eigenvalues --   -0.66451  -0.65914  -0.65623  -0.64849  -0.64136
 Alpha  occ. eigenvalues --   -0.61839  -0.60357  -0.60067  -0.58855  -0.57817
 Alpha  occ. eigenvalues --   -0.57603  -0.57274  -0.57181  -0.56856  -0.56409
 Alpha  occ. eigenvalues --   -0.56315  -0.56081  -0.55877  -0.55741  -0.55589
 Alpha  occ. eigenvalues --   -0.55131  -0.54954  -0.54834  -0.54599  -0.54418
 Alpha  occ. eigenvalues --   -0.54192  -0.53938  -0.53557  -0.53315  -0.53069
 Alpha  occ. eigenvalues --   -0.52929  -0.52630  -0.52327  -0.52154  -0.51981
 Alpha  occ. eigenvalues --   -0.51876  -0.51436  -0.50997  -0.50889  -0.50857
 Alpha  occ. eigenvalues --   -0.50533  -0.50348  -0.50179  -0.50130  -0.49991
 Alpha  occ. eigenvalues --   -0.49419  -0.49185  -0.49044  -0.48878  -0.48682
 Alpha  occ. eigenvalues --   -0.48160  -0.46693  -0.46048  -0.45899  -0.44805
 Alpha  occ. eigenvalues --   -0.44602  -0.43911  -0.41096  -0.40548  -0.39945
 Alpha  occ. eigenvalues --   -0.39631  -0.39179  -0.39064  -0.38339  -0.36168
 Alpha  occ. eigenvalues --   -0.35596
 Alpha virt. eigenvalues --    0.00177   0.00664   0.05418   0.06194   0.07038
 Alpha virt. eigenvalues --    0.08315   0.11181   0.12850   0.13689   0.15660
 Alpha virt. eigenvalues --    0.15921   0.16827   0.17337   0.17609   0.18485

 Mulliken charges:
               1
     1  C   -0.324302
     2  C   -0.187682
     3  C   -0.185946
     4  C   -0.059674
     5  N   -0.586543
     6  C    0.833525
     7  O   -0.500155
     8  N   -0.656957
     9  C    0.760462
    10  F   -0.252700
    11  F   -0.255826
    12  C    0.437527
    13  F   -0.254873
    14  O   -0.507598
    15  C    0.997414
    16  F   -0.242393
    17  F   -0.238507
    18  F   -0.242943
    19  C    0.813951
    20  F   -0.258996
    21  F   -0.243777
    22  F   -0.245361
    23  C    0.864006
    24  O   -0.486685
    25  N   -0.645909
    26  C    0.747868
    27  F   -0.264236
    28  F   -0.247333
    29  C    0.434327
    30  F   -0.255458
    31  O   -0.512687
    32  C    0.997126
    33  F   -0.238344
    34  F   -0.242873
    35  F   -0.245538
    36  C    0.817896
    37  F   -0.234134
    38  F   -0.251620
    39  F   -0.253659
    40  C    0.839144
    41  O   -0.501007
    42  H    0.107937
    43  H    0.111962
    44  H    0.109004
    45  H    0.107287
    46  H    0.105619
    47  H    0.115688
    48  H    0.114921
    49  H    0.151558
    50  H    0.156492
 Sum of Mulliken charges =   0.00000

 Dipole moment (field-independent basis, Debye):
    X=             -2.9350    Y=             -1.2272    Z=             -0.3341  Tot=              3.1987
 Quadrupole moment (field-independent basis, Debye-Ang):
   XX=           -221.4195   YY=           -230.1822   ZZ=           -220.3270
   XY=              3.5191   XZ=             -2.5285   YZ=              6.6924

 Normal termination of Gaussian 09 at Sun Mar  3 17:28:58 2024.
