 Gaussian 09, Revision D.01,
 Gaussian 09:  ES64L-G09RevD.01 24-Apr-2013

 ----------------------------------------------------------------------
 #p CAM-B3LYP/6-31G(d,p) SCRF=(PCM,Solvent=Generic,Read) NoSymm out=wfn
 ----------------------------------------------------------------------

 -------------------
 Title A1462740672_0
 -------------------
 Symbolic Z-matrix:
 Charge =  0 Multiplicity = 1

                          Input orientation:
 ---------------------------------------------------------------------
 Center     Atomic      Atomic             Coordinates (Angstroms)
 Number     Number       Type             X           Y           Z
 ---------------------------------------------------------------------
      1          6           0       -2.607070    2.144566    0.778893
      2          6           0       -1.469489    1.439680    0.929672
      3          7           0       -0.314914    2.074654    1.378002
      4          6           0       -0.299671    3.515495    1.652292
      5          6           0        0.882911    1.395849    1.567388
      6          8           0        1.922835    1.987249    1.856063
      7          7           0        0.843756    0.035663    1.399183
      8          6           0        2.092724   -0.695429    1.548465
      9          9           0        2.775784   -0.201148    2.623260
     10          9           0        1.803043   -1.973548    1.933263
     11          6           0        3.013144   -0.709281    0.298699
     12          9           0        2.394021   -1.385036   -0.713116
     13          8           0        3.188486    0.626044   -0.191403
     14          6           0        4.194243    0.735202   -1.162213
     15          9           0        4.093124   -0.240179   -2.077747
     16          9           0        4.063479    1.924123   -1.779440
     17          9           0        5.396369    0.691292   -0.566002
     18          6           0        4.273990   -1.469162    0.734401
     19          9           0        5.099709   -1.699654   -0.316829
     20          9           0        4.007800   -2.679116    1.270672
     21          9           0        4.994372   -0.773646    1.642874
     22          6           0       -0.168239   -0.585535    0.718648
     23          8           0       -0.010823   -1.692149    0.209279
     24          7           0       -1.371557    0.087831    0.612500
     25          6           0       -2.483118   -0.691579    0.029725
     26          9           0       -2.375290   -2.003678    0.372154
     27          9           0       -3.644282   -0.320556    0.666154
     28          6           0       -2.723641   -0.541164   -1.499065
     29          9           0       -2.609419    0.802431   -1.806801
     30          8           0       -4.073425   -0.811494   -1.917129
     31          6           0       -4.463967   -2.158894   -1.843508
     32          9           0       -4.368957   -2.609865   -0.587038
     33          9           0       -3.715454   -2.906156   -2.665323
     34          9           0       -5.748590   -2.245651   -2.235036
     35          6           0       -1.632009   -1.259151   -2.288782
     36          9           0       -1.907140   -1.215007   -3.617542
     37          9           0       -1.498154   -2.555935   -1.956522
     38          9           0       -0.429898   -0.655717   -2.134544
     39          1           0       -2.688895    3.199785    1.015280
     40          1           0       -3.541453    1.746097    0.404167
     41          1           0       -0.562430    4.062579    0.741702
     42          1           0        0.679562    3.873690    1.980929
     43          1           0       -1.011466    3.736499    2.453288
 ---------------------------------------------------------------------

 SCF Done:  E(RCAM-B3LYP) =  -2759.85121157     A.U. after   13 cycles

 Alpha  occ. eigenvalues --  -24.83936 -24.83903 -24.83566 -24.83501 -24.83388
 Alpha  occ. eigenvalues --  -24.83371 -24.83316 -24.83248 -24.83127 -24.82952
 Alpha  occ. eigenvalues --  -24.82753 -24.82707 -24.82682 -24.82558 -24.82454
 Alpha  occ. eigenvalues --  -24.82399 -24.82341 -24.82278 -19.33279 -19.32765
 Alpha  occ. eigenvalues --  -19.23073 -19.22248 -14.51924 -14.51781 -14.49087
 Alpha  occ. eigenvalues --  -10.59789 -10.59407 -10.55217 -10.55105 -10.53367
 Alpha  occ. eigenvalues --  -10.52794 -10.49072 -10.48618 -10.45550 -10.44191
 Alpha  occ. eigenvalues --  -10.38096 -10.30897 -10.26041  -1.43553  -1.43072
 Alpha  occ. eigenvalues --   -1.41610  -1.41494  -1.38967  -1.38493  -1.35417
 Alpha  occ. eigenvalues --   -1.35267  -1.34188  -1.33442  -1.33394  -1.33137
 Alpha  occ. eigenvalues --   -1.32552  -1.32490  -1.32056  -1.31862  -1.31495
 Alpha  occ. eigenvalues --   -1.31017  -1.21224  -1.20533  -1.20269  -1.16441
 Alpha  occ. eigenvalues --   -1.11070  -1.07958  -1.04822  -0.93361  -0.92903
 Alpha  occ. eigenvalues --   -0.87961  -0.85656  -0.83007  -0.82366  -0.82235
 Alpha  occ. eigenvalues --   -0.80470  -0.78100  -0.76239  -0.75560  -0.73606
 Alpha  occ. eigenvalues --   -0.73279  -0.72752  -0.72183  -0.72070  -0.71113
 Alpha  occ. eigenvalues --   -0.70886  -0.70438  -0.70219  -0.69673  -0.68755
 Alpha  occ. eigenvalues --   -0.68533  -0.68277  -0.67549  -0.66915  -0.66137
 Alpha  occ. eigenvalues --   -0.65718  -0.64725  -0.63934  -0.63677  -0.60732
 Alpha  occ. eigenvalues --   -0.59584  -0.58947  -0.58053  -0.57442  -0.57350
 Alpha  occ. eigenvalues --   -0.57143  -0.56978  -0.56740  -0.56151  -0.55887
 Alpha  occ. eigenvalues --   -0.55655  -0.55488  -0.55372  -0.55263  -0.55070
 Alpha  occ. eigenvalues --   -0.54645  -0.54533  -0.54307  -0.53744  -0.53531
 Alpha  occ. eigenvalues --   -0.53327  -0.53201  -0.52955  -0.52925  -0.52405
 Alpha  occ. eigenvalues --   -0.52124  -0.52047  -0.51889  -0.51464  -0.50741
 Alpha  occ. eigenvalues --   -0.50578  -0.50445  -0.50266  -0.50093  -0.49957
 Alpha  occ. eigenvalues --   -0.49707  -0.49363  -0.49156  -0.48883  -0.48678
 Alpha  occ. eigenvalues --   -0.48500  -0.48336  -0.47934  -0.47287  -0.46094
 Alpha  occ. eigenvalues --   -0.45531  -0.45212  -0.44261  -0.43560  -0.38920
 Alpha  occ. eigenvalues --   -0.37073  -0.36627  -0.35797  -0.28853
 Alpha virt. eigenvalues --    0.01901   0.03238   0.05419   0.06012   0.06753
 Alpha virt. eigenvalues --    0.09652   0.12134   0.14049   0.14250   0.15408
 Alpha virt. eigenvalues --    0.16782   0.17603   0.17893   0.18734   0.19628

 Mulliken charges:
               1
     1  C   -0.365246
     2  C    0.626305
     3  N   -0.599435
     4  C   -0.197569
     5  C    0.820250
     6  O   -0.520948
     7  N   -0.643393
     8  C    0.759620
     9  F   -0.256038
    10  F   -0.261103
    11  C    0.438219
    12  F   -0.254712
    13  O   -0.505448
    14  C    0.994870
    15  F   -0.243123
    16  F   -0.240676
    17  F   -0.244237
    18  C    0.811693
    19  F   -0.262093
    20  F   -0.243854
    21  F   -0.247409
    22  C    0.831915
    23  O   -0.504167
    24  N   -0.669149
    25  C    0.743110
    26  F   -0.243026
    27  F   -0.271873
    28  C    0.434018
    29  F   -0.275647
    30  O   -0.498914
    31  C    0.971406
    32  F   -0.229876
    33  F   -0.234317
    34  F   -0.239555
    35  C    0.826714
    36  F   -0.260565
    37  F   -0.240681
    38  F   -0.247901
    39  H    0.128011
    40  H    0.130922
    41  H    0.152353
    42  H    0.178834
    43  H    0.152713
 Sum of Mulliken charges =   0.00000

 Dipole moment (field-independent basis, Debye):
    X=             -3.2706    Y=              3.7478    Z=              0.6305  Tot=              5.0140
 Quadrupole moment (field-independent basis, Debye-Ang):
   XX=           -208.6034   YY=           -195.9926   ZZ=           -202.9785
   XY=             -4.8346   XZ=             -6.8193   YZ=              3.0667

 Normal termination of Gaussian 09 at Sun Mar  3 17:38:07 2024.
