 Gaussian 09, Revision D.01,
 Gaussian 09:  ES64L-G09RevD.01 24-Apr-2013

 ----------------------------------------------------------------------
 #p CAM-B3LYP/6-31G(d,p) SCRF=(PCM,Solvent=Generic,Read) NoSymm out=wfn
 ----------------------------------------------------------------------

 --------------------
 Title A1462740672_p1
 --------------------
 Symbolic Z-matrix:
 Charge =  1 Multiplicity = 2

                          Input orientation:
 ---------------------------------------------------------------------
 Center     Atomic      Atomic             Coordinates (Angstroms)
 Number     Number       Type             X           Y           Z
 ---------------------------------------------------------------------
      1          6           0       -2.607070    2.144566    0.778893
      2          6           0       -1.469489    1.439680    0.929672
      3          7           0       -0.314914    2.074654    1.378002
      4          6           0       -0.299671    3.515495    1.652292
      5          6           0        0.882911    1.395849    1.567388
      6          8           0        1.922835    1.987249    1.856063
      7          7           0        0.843756    0.035663    1.399183
      8          6           0        2.092724   -0.695429    1.548465
      9          9           0        2.775784   -0.201148    2.623260
     10          9           0        1.803043   -1.973548    1.933263
     11          6           0        3.013144   -0.709281    0.298699
     12          9           0        2.394021   -1.385036   -0.713116
     13          8           0        3.188486    0.626044   -0.191403
     14          6           0        4.194243    0.735202   -1.162213
     15          9           0        4.093124   -0.240179   -2.077747
     16          9           0        4.063479    1.924123   -1.779440
     17          9           0        5.396369    0.691292   -0.566002
     18          6           0        4.273990   -1.469162    0.734401
     19          9           0        5.099709   -1.699654   -0.316829
     20          9           0        4.007800   -2.679116    1.270672
     21          9           0        4.994372   -0.773646    1.642874
     22          6           0       -0.168239   -0.585535    0.718648
     23          8           0       -0.010823   -1.692149    0.209279
     24          7           0       -1.371557    0.087831    0.612500
     25          6           0       -2.483118   -0.691579    0.029725
     26          9           0       -2.375290   -2.003678    0.372154
     27          9           0       -3.644282   -0.320556    0.666154
     28          6           0       -2.723641   -0.541164   -1.499065
     29          9           0       -2.609419    0.802431   -1.806801
     30          8           0       -4.073425   -0.811494   -1.917129
     31          6           0       -4.463967   -2.158894   -1.843508
     32          9           0       -4.368957   -2.609865   -0.587038
     33          9           0       -3.715454   -2.906156   -2.665323
     34          9           0       -5.748590   -2.245651   -2.235036
     35          6           0       -1.632009   -1.259151   -2.288782
     36          9           0       -1.907140   -1.215007   -3.617542
     37          9           0       -1.498154   -2.555935   -1.956522
     38          9           0       -0.429898   -0.655717   -2.134544
     39          1           0       -2.688895    3.199785    1.015280
     40          1           0       -3.541453    1.746097    0.404167
     41          1           0       -0.562430    4.062579    0.741702
     42          1           0        0.679562    3.873690    1.980929
     43          1           0       -1.011466    3.736499    2.453288
 ---------------------------------------------------------------------

 SCF Done:  E(UCAM-B3LYP) =  -2759.59773071     A.U. after   20 cycles

 Alpha  occ. eigenvalues --  -24.88287 -24.87899 -24.87536 -24.86703 -24.86392
 Alpha  occ. eigenvalues --  -24.86159 -24.85991 -24.85890 -24.85852 -24.85679
 Alpha  occ. eigenvalues --  -24.85477 -24.85389 -24.85268 -24.85237 -24.85153
 Alpha  occ. eigenvalues --  -24.85115 -24.84752 -24.84385 -19.36574 -19.35493
 Alpha  occ. eigenvalues --  -19.30230 -19.29529 -14.61255 -14.61110 -14.58233
 Alpha  occ. eigenvalues --  -10.62282 -10.61571 -10.58997 -10.58437 -10.57310
 Alpha  occ. eigenvalues --  -10.56810 -10.53318 -10.52028 -10.51799 -10.51627
 Alpha  occ. eigenvalues --  -10.51613 -10.41416 -10.37317  -1.46074  -1.45100
 Alpha  occ. eigenvalues --   -1.44645  -1.43953  -1.43615  -1.41945  -1.39845
 Alpha  occ. eigenvalues --   -1.38052  -1.36867  -1.36535  -1.35799  -1.35358
 Alpha  occ. eigenvalues --   -1.35351  -1.35205  -1.34947  -1.34792  -1.34019
 Alpha  occ. eigenvalues --   -1.33797  -1.28657  -1.23842  -1.23763  -1.22953
 Alpha  occ. eigenvalues --   -1.19969  -1.14545  -1.14046  -1.00650  -0.97674
 Alpha  occ. eigenvalues --   -0.95945  -0.91711  -0.89658  -0.87324  -0.85428
 Alpha  occ. eigenvalues --   -0.84332  -0.83923  -0.82063  -0.81045  -0.79791
 Alpha  occ. eigenvalues --   -0.78578  -0.76920  -0.76226  -0.75161  -0.74727
 Alpha  occ. eigenvalues --   -0.74426  -0.73250  -0.72815  -0.72483  -0.71801
 Alpha  occ. eigenvalues --   -0.71623  -0.71166  -0.70613  -0.70474  -0.69553
 Alpha  occ. eigenvalues --   -0.69403  -0.69042  -0.68273  -0.68208  -0.67685
 Alpha  occ. eigenvalues --   -0.67234  -0.64180  -0.62792  -0.62367  -0.62129
 Alpha  occ. eigenvalues --   -0.61533  -0.61174  -0.60884  -0.60357  -0.59888
 Alpha  occ. eigenvalues --   -0.59593  -0.59313  -0.59132  -0.58965  -0.58712
 Alpha  occ. eigenvalues --   -0.58442  -0.58307  -0.57891  -0.57685  -0.57438
 Alpha  occ. eigenvalues --   -0.57309  -0.57067  -0.56814  -0.56185  -0.55949
 Alpha  occ. eigenvalues --   -0.55683  -0.55281  -0.54960  -0.54940  -0.54482
 Alpha  occ. eigenvalues --   -0.54226  -0.54000  -0.53732  -0.53644  -0.53481
 Alpha  occ. eigenvalues --   -0.53360  -0.52924  -0.52578  -0.52473  -0.52175
 Alpha  occ. eigenvalues --   -0.51953  -0.51797  -0.51624  -0.51425  -0.51095
 Alpha  occ. eigenvalues --   -0.50657  -0.48509  -0.47660  -0.47123  -0.45370
 Alpha  occ. eigenvalues --   -0.44849  -0.43254  -0.42530  -0.42246
 Alpha virt. eigenvalues --   -0.07496  -0.04771   0.00511   0.01032   0.02910
 Alpha virt. eigenvalues --    0.03506   0.06417   0.07691   0.08445   0.09987
 Alpha virt. eigenvalues --    0.10490   0.11912   0.13624   0.14016   0.14681

  Beta  occ. eigenvalues --  -24.88278 -24.87878 -24.87536 -24.86702 -24.86392
  Beta  occ. eigenvalues --  -24.86159 -24.85989 -24.85890 -24.85851 -24.85679
  Beta  occ. eigenvalues --  -24.85477 -24.85389 -24.85268 -24.85237 -24.85153
  Beta  occ. eigenvalues --  -24.85115 -24.84752 -24.84384 -19.36572 -19.35493
  Beta  occ. eigenvalues --  -19.30080 -19.29508 -14.60935 -14.60719 -14.58196
  Beta  occ. eigenvalues --  -10.62282 -10.61571 -10.59007 -10.58436 -10.57310
  Beta  occ. eigenvalues --  -10.56812 -10.53313 -10.52049 -10.51869 -10.51640
  Beta  occ. eigenvalues --  -10.51625 -10.40415 -10.37342  -1.46071  -1.45099
  Beta  occ. eigenvalues --   -1.44642  -1.43942  -1.43614  -1.41941  -1.39812
  Beta  occ. eigenvalues --   -1.38052  -1.36859  -1.36532  -1.35798  -1.35357
  Beta  occ. eigenvalues --   -1.35351  -1.35203  -1.34945  -1.34792  -1.34018
  Beta  occ. eigenvalues --   -1.33796  -1.28406  -1.23801  -1.23581  -1.22922
  Beta  occ. eigenvalues --   -1.19561  -1.14378  -1.13441  -0.98916  -0.97599
  Beta  occ. eigenvalues --   -0.95719  -0.91626  -0.89579  -0.86698  -0.85412
  Beta  occ. eigenvalues --   -0.84214  -0.83847  -0.81627  -0.80824  -0.79743
  Beta  occ. eigenvalues --   -0.78517  -0.76872  -0.76191  -0.75127  -0.74704
  Beta  occ. eigenvalues --   -0.74381  -0.73212  -0.72807  -0.72470  -0.71777
  Beta  occ. eigenvalues --   -0.71607  -0.71145  -0.70540  -0.70433  -0.69428
  Beta  occ. eigenvalues --   -0.69310  -0.68868  -0.68147  -0.67713  -0.67117
  Beta  occ. eigenvalues --   -0.66933  -0.63833  -0.62318  -0.62131  -0.62006
  Beta  occ. eigenvalues --   -0.61211  -0.61040  -0.60690  -0.60239  -0.59796
  Beta  occ. eigenvalues --   -0.59521  -0.59232  -0.59105  -0.58921  -0.58618
  Beta  occ. eigenvalues --   -0.58349  -0.58263  -0.57667  -0.57643  -0.57227
  Beta  occ. eigenvalues --   -0.57140  -0.57054  -0.56637  -0.56060  -0.55905
  Beta  occ. eigenvalues --   -0.55674  -0.55258  -0.54830  -0.54781  -0.54436
  Beta  occ. eigenvalues --   -0.54188  -0.53803  -0.53615  -0.53576  -0.53412
  Beta  occ. eigenvalues --   -0.53324  -0.52730  -0.52562  -0.52233  -0.52157
  Beta  occ. eigenvalues --   -0.51909  -0.51773  -0.51614  -0.51388  -0.51072
  Beta  occ. eigenvalues --   -0.50650  -0.48385  -0.47347  -0.47046  -0.44909
  Beta  occ. eigenvalues --   -0.43120  -0.42729  -0.42009
  Beta virt. eigenvalues --   -0.21916  -0.04593  -0.03587   0.00687   0.01129
  Beta virt. eigenvalues --    0.02949   0.04557   0.06585   0.07968   0.08559
  Beta virt. eigenvalues --    0.10239   0.10642   0.12037   0.13717   0.14220

 Mulliken charges and spin densities:
               1          2
     1  C   -0.190038   0.702726
     2  C    0.720331  -0.001218
     3  N   -0.555006   0.231056
     4  C   -0.240874  -0.016798
     5  C    0.868919  -0.037279
     6  O   -0.440611   0.059504
     7  N   -0.642586   0.017379
     8  C    0.763962  -0.000566
     9  F   -0.245711   0.000248
    10  F   -0.249147   0.000257
    11  C    0.440625   0.001051
    12  F   -0.250475   0.000015
    13  O   -0.513371   0.000016
    14  C    0.999571   0.000006
    15  F   -0.239397   0.000016
    16  F   -0.238272  -0.000001
    17  F   -0.239675   0.000005
    18  C    0.818758   0.000023
    19  F   -0.256315   0.000111
    20  F   -0.240087   0.000009
    21  F   -0.243929   0.000010
    22  C    0.864209  -0.010884
    23  O   -0.446893   0.009103
    24  N   -0.657023   0.076052
    25  C    0.738535  -0.005711
    26  F   -0.222058   0.000038
    27  F   -0.260175   0.002306
    28  C    0.438200   0.001970
    29  F   -0.277037   0.003542
    30  O   -0.488250   0.000617
    31  C    0.977675  -0.000005
    32  F   -0.228707   0.000005
    33  F   -0.229046   0.000007
    34  F   -0.232775   0.000037
    35  C    0.833332   0.000145
    36  F   -0.250192   0.000015
    37  F   -0.233602   0.000019
    38  F   -0.248057   0.000199
    39  H    0.233233  -0.029355
    40  H    0.232125  -0.028573
    41  H    0.200971   0.011608
    42  H    0.226786   0.000180
    43  H    0.202076   0.012115
 Sum of Mulliken charges =   1.00000   1.00000

 Dipole moment (field-independent basis, Debye):
    X=             -8.8927    Y=             10.5845    Z=              4.7940  Tot=             14.6319
 Quadrupole moment (field-independent basis, Debye-Ang):
   XX=           -179.5924   YY=           -169.0914   ZZ=           -190.6541
   XY=            -14.9111   XZ=             -8.3614   YZ=             13.1326

 Normal termination of Gaussian 09 at Sun Mar  3 17:38:50 2024.
