 Gaussian 09, Revision D.01,
 Gaussian 09:  ES64L-G09RevD.01 24-Apr-2013

 ----------------------------------------------------------------------
 #p CAM-B3LYP/6-31G(d,p) SCRF=(PCM,Solvent=Generic,Read) NoSymm out=wfn
 ----------------------------------------------------------------------

 -----------------
 Title LDAI1C0_neu
 -----------------
 Symbolic Z-matrix:
 Charge =  0 Multiplicity = 1

                          Input orientation:
 ---------------------------------------------------------------------
 Center     Atomic      Atomic             Coordinates (Angstroms)
 Number     Number       Type             X           Y           Z
 ---------------------------------------------------------------------
      1          6           0        0.060520   -3.812534   -2.063911
      2          7           0        0.059118   -2.512536   -1.416291
      3          6           0       -1.107703   -1.780387   -1.430237
      4          8           0       -2.150849   -2.221493   -1.917680
      5          7           0       -1.048213   -0.527825   -0.855578
      6          6           0       -2.243071    0.311399   -0.904428
      7          6           0       -3.159157    0.058610    0.297264
      8          6           0       -4.412678    0.936326    0.238421
      9          6           0       -5.322582    0.696910    1.442699
     10          9           0       -4.613790    0.960946    2.577193
     11          9           0       -5.643261   -0.622969    1.504875
     12          6           0       -6.602736    1.568939    1.408120
     13          9           0       -7.354202    1.400523    2.525469
     14          9           0       -6.220637    2.881650    1.432652
     15          8           0       -7.451606    1.466934    0.290330
     16          6           0       -7.936038    0.162507    0.141160
     17          9           0       -8.220375   -0.422395    1.314741
     18          9           0       -9.059443    0.206916   -0.602037
     19          9           0       -7.023250   -0.569282   -0.524061
     20          6           0        0.039569   -0.072492   -0.141121
     21          8           0        0.044295    1.036372    0.398705
     22          7           0        1.117869   -0.927630   -0.054456
     23          6           0        2.290351   -0.487008    0.697951
     24          6           0        3.269129    0.286688   -0.191392
     25          6           0        4.499986    0.747952    0.599843
     26          6           0        5.479953    1.515891   -0.288213
     27          9           0        4.758013    2.511919   -0.892913
     28          9           0        5.901736    0.702064   -1.295469
     29          6           0        6.705991    2.159867    0.421268
     30          9           0        6.328733    2.820755    1.547297
     31          9           0        7.190794    3.134855   -0.409918
     32          8           0        7.847569    1.395576    0.719010
     33          6           0        7.571560    0.315767    1.546691
     34          9           0        8.705947   -0.075492    2.155994
     35          9           0        7.110876   -0.705810    0.803243
     36          9           0        6.661354    0.624855    2.486661
     37          6           0        1.179363   -2.143047   -0.704345
     38          8           0        2.180154   -2.860921   -0.643357
     39          1           0       -0.244737   -4.562776   -1.327532
     40          1           0       -0.637895   -3.835684   -2.905670
     41          1           0        1.059548   -4.064551   -2.432183
     42          1           0       -2.787467    0.114550   -1.835762
     43          1           0       -1.945030    1.366335   -0.929387
     44          1           0       -2.611152    0.256442    1.226519
     45          1           0       -3.449176   -0.998817    0.324121
     46          1           0       -4.951141    0.724092   -0.691344
     47          1           0       -4.109057    1.989603    0.215595
     48          1           0        2.792628   -1.358742    1.133902
     49          1           0        1.970667    0.144082    1.535696
     50          1           0        2.759256    1.154276   -0.627447
     51          1           0        3.585177   -0.345741   -1.030025
     52          1           0        4.170830    1.393825    1.422027
     53          1           0        4.964259   -0.139295    1.032499
 ---------------------------------------------------------------------

 SCF Done:  E(RCAM-B3LYP) =  -2556.19915703     A.U. after   13 cycles

 Alpha  occ. eigenvalues --  -24.84403 -24.83836 -24.83647 -24.83613 -24.83169
 Alpha  occ. eigenvalues --  -24.83102 -24.81974 -24.81821 -24.81426 -24.81165
 Alpha  occ. eigenvalues --  -24.80651 -24.80495 -24.80479 -24.80244 -19.32685
 Alpha  occ. eigenvalues --  -19.32506 -19.22021 -19.22009 -19.21954 -14.48832
 Alpha  occ. eigenvalues --  -14.48826 -14.48808 -10.59743 -10.59314 -10.52605
 Alpha  occ. eigenvalues --  -10.52345 -10.46464 -10.46306 -10.43280 -10.43211
 Alpha  occ. eigenvalues --  -10.43200 -10.31374 -10.31326 -10.30283 -10.28724
 Alpha  occ. eigenvalues --  -10.28588 -10.27500 -10.27416  -1.43536  -1.42925
 Alpha  occ. eigenvalues --   -1.38254  -1.38240  -1.35678  -1.35358  -1.34061
 Alpha  occ. eigenvalues --   -1.33509  -1.33422  -1.32805  -1.30684  -1.30509
 Alpha  occ. eigenvalues --   -1.29580  -1.29312  -1.20935  -1.20563  -1.19952
 Alpha  occ. eigenvalues --   -1.15251  -1.15221  -1.06822  -1.04285  -1.04190
 Alpha  occ. eigenvalues --   -0.91642  -0.91249  -0.87782  -0.86974  -0.84097
 Alpha  occ. eigenvalues --   -0.83011  -0.82090  -0.80291  -0.80049  -0.76331
 Alpha  occ. eigenvalues --   -0.75825  -0.74025  -0.73858  -0.71373  -0.71135
 Alpha  occ. eigenvalues --   -0.70841  -0.70687  -0.70586  -0.70381  -0.70155
 Alpha  occ. eigenvalues --   -0.69631  -0.69192  -0.67005  -0.66571  -0.65781
 Alpha  occ. eigenvalues --   -0.65230  -0.63895  -0.63666  -0.62390  -0.60968
 Alpha  occ. eigenvalues --   -0.60493  -0.60260  -0.60028  -0.59131  -0.57223
 Alpha  occ. eigenvalues --   -0.56907  -0.56701  -0.56431  -0.56019  -0.55682
 Alpha  occ. eigenvalues --   -0.55062  -0.55024  -0.54819  -0.54734  -0.54060
 Alpha  occ. eigenvalues --   -0.53925  -0.53833  -0.53572  -0.53415  -0.53033
 Alpha  occ. eigenvalues --   -0.52671  -0.52320  -0.52246  -0.52103  -0.51750
 Alpha  occ. eigenvalues --   -0.51532  -0.51257  -0.50879  -0.50708  -0.50467
 Alpha  occ. eigenvalues --   -0.50177  -0.49792  -0.49417  -0.48909  -0.48826
 Alpha  occ. eigenvalues --   -0.48717  -0.48524  -0.48276  -0.47868  -0.47130
 Alpha  occ. eigenvalues --   -0.47070  -0.46619  -0.46429  -0.46093  -0.46008
 Alpha  occ. eigenvalues --   -0.45582  -0.45134  -0.43661  -0.43312  -0.41943
 Alpha  occ. eigenvalues --   -0.41669  -0.41221  -0.40976  -0.38150  -0.38042
 Alpha  occ. eigenvalues --   -0.35740  -0.34640  -0.34509  -0.34135
 Alpha virt. eigenvalues --    0.03398   0.03491   0.10663   0.11037   0.11851
 Alpha virt. eigenvalues --    0.12412   0.13926   0.14170   0.15713   0.16226
 Alpha virt. eigenvalues --    0.16756   0.16917   0.17641   0.18490   0.18572

 Mulliken charges:
               1
     1  C   -0.182514
     2  N   -0.557804
     3  C    0.815513
     4  O   -0.533704
     5  N   -0.567135
     6  C   -0.057005
     7  C   -0.205184
     8  C   -0.252077
     9  C    0.543665
    10  F   -0.284618
    11  F   -0.282752
    12  C    0.731680
    13  F   -0.260397
    14  F   -0.271724
    15  O   -0.493554
    16  C    0.980914
    17  F   -0.237982
    18  F   -0.242763
    19  F   -0.244189
    20  C    0.826234
    21  O   -0.539988
    22  N   -0.569647
    23  C   -0.058494
    24  C   -0.204433
    25  C   -0.269933
    26  C    0.547212
    27  F   -0.288820
    28  F   -0.283419
    29  C    0.736336
    30  F   -0.256527
    31  F   -0.275962
    32  O   -0.481322
    33  C    0.980666
    34  F   -0.237564
    35  F   -0.240613
    36  F   -0.240336
    37  C    0.818920
    38  O   -0.536327
    39  H    0.151310
    40  H    0.157974
    41  H    0.158449
    42  H    0.149528
    43  H    0.151092
    44  H    0.133273
    45  H    0.134348
    46  H    0.140364
    47  H    0.146520
    48  H    0.150130
    49  H    0.150196
    50  H    0.133492
    51  H    0.132116
    52  H    0.145416
    53  H    0.141443
 Sum of Mulliken charges =   0.00000

 Dipole moment (field-independent basis, Debye):
    X=              0.0951    Y=             -1.6211    Z=             -0.5392  Tot=              1.7111
 Quadrupole moment (field-independent basis, Debye-Ang):
   XX=           -239.2231   YY=           -215.3168   ZZ=           -207.4847
   XY=             -6.8285   XZ=             13.7644   YZ=             -1.6422

 Normal termination of Gaussian 09 at Sun Feb  2 05:09:33 2025.
