 Gaussian 09, Revision D.01,
 Gaussian 09:  ES64L-G09RevD.01 24-Apr-2013

 ----------------------------------------------------------------------
 #p CAM-B3LYP/6-31G(d,p) SCRF=(PCM,Solvent=Generic,Read) NoSymm out=wfn
 ----------------------------------------------------------------------

 --------------
 Title APN1_neu
 --------------
 Symbolic Z-matrix:
 Charge =  0 Multiplicity = 1

                          Input orientation:
 ---------------------------------------------------------------------
 Center     Atomic      Atomic             Coordinates (Angstroms)
 Number     Number       Type             X           Y           Z
 ---------------------------------------------------------------------
      1          9           0        3.043236    3.198762    1.341600
      2          6           0        2.147227    2.252100    1.695949
      3          9           0        1.240660    2.831013    2.510463
      4          6           0        2.804751    1.033418    2.309813
      5          9           0        1.900756    0.284312    2.982312
      6          9           0        3.790980    1.324569    3.175519
      7          6           0        3.265984    0.340164    1.067000
      8          9           0        4.319255    1.077547    0.565408
      9          6           0        3.755864   -1.057368    1.344477
     10          9           0        2.746169   -1.817545    1.854593
     11          6           0        4.355944   -1.682700    0.087658
     12          8           0        5.501166   -2.365278    0.297356
     13          8           0        3.875013   -1.647544   -1.032866
     14          9           0        4.686488   -0.995203    2.347985
     15          6           0        2.055280    0.553295    0.147935
     16          9           0        2.521781    0.676304   -1.123645
     17          6           0        0.924129   -0.495189    0.182772
     18          9           0        1.410611   -1.734020   -0.092384
     19          6           0       -0.216280   -0.144657   -0.795402
     20          7           0       -1.473420   -0.350419   -0.222087
     21          6           0       -2.736658   -0.165812   -0.820479
     22          6           0       -2.925259    0.290404   -2.127330
     23          6           0       -4.217682    0.445266   -2.649339
     24          6           0       -4.396784    0.937227   -3.985012
     25          7           0       -4.556377    1.356885   -5.056437
     26          6           0       -5.332635    0.137694   -1.864369
     27          6           0       -5.154152   -0.312587   -0.553255
     28          6           0       -6.291564   -0.633748    0.259925
     29          7           0       -7.206375   -0.912418    0.912392
     30          6           0       -3.860674   -0.460198   -0.034374
     31          8           0       -0.021941    0.205702   -1.954779
     32          9           0        0.426112   -0.585085    1.452536
     33          8           0        1.493640    1.844277    0.496495
     34          1           0        5.751857   -2.735313   -0.577017
     35          1           0       -1.467658   -0.670674    0.745087
     36          1           0       -2.082250    0.535418   -2.769064
     37          1           0       -6.337125    0.255344   -2.271685
     38          1           0       -3.740069   -0.813944    0.990439
 ---------------------------------------------------------------------

 SCF Done:  E(RCAM-B3LYP) =  -2075.51909670     A.U. after   14 cycles

 Alpha  occ. eigenvalues --  -24.83980 -24.83839 -24.83611 -24.83550 -24.83452
 Alpha  occ. eigenvalues --  -24.83237 -24.83011 -24.82799 -24.82674 -24.81794
 Alpha  occ. eigenvalues --  -19.32269 -19.30601 -19.25968 -19.25020 -14.49574
 Alpha  occ. eigenvalues --  -14.43220 -14.42974 -10.53031 -10.49886 -10.49327
 Alpha  occ. eigenvalues --  -10.49315 -10.47919 -10.44906 -10.43285 -10.43017
 Alpha  occ. eigenvalues --  -10.36374 -10.34360 -10.34076 -10.32648 -10.32449
 Alpha  occ. eigenvalues --  -10.32381 -10.32076 -10.31536  -1.41063  -1.39449
 Alpha  occ. eigenvalues --   -1.38718  -1.38136  -1.36096  -1.34004  -1.33224
 Alpha  occ. eigenvalues --   -1.32474  -1.32200  -1.31671  -1.22682  -1.20369
 Alpha  occ. eigenvalues --   -1.16876  -1.13008  -1.06747  -1.01505  -1.00586
 Alpha  occ. eigenvalues --   -0.98195  -0.97917  -0.91532  -0.90176  -0.89446
 Alpha  occ. eigenvalues --   -0.88181  -0.83653  -0.79560  -0.77490  -0.77296
 Alpha  occ. eigenvalues --   -0.76215  -0.74106  -0.72934  -0.71163  -0.70903
 Alpha  occ. eigenvalues --   -0.69823  -0.69232  -0.68500  -0.67643  -0.67453
 Alpha  occ. eigenvalues --   -0.66780  -0.66081  -0.65615  -0.63746  -0.63257
 Alpha  occ. eigenvalues --   -0.62797  -0.60635  -0.59149  -0.58977  -0.58657
 Alpha  occ. eigenvalues --   -0.58593  -0.57990  -0.56666  -0.56605  -0.56530
 Alpha  occ. eigenvalues --   -0.56064  -0.55103  -0.54855  -0.54519  -0.54174
 Alpha  occ. eigenvalues --   -0.54021  -0.53609  -0.53331  -0.53209  -0.52260
 Alpha  occ. eigenvalues --   -0.52142  -0.51591  -0.51226  -0.50799  -0.50490
 Alpha  occ. eigenvalues --   -0.50274  -0.49980  -0.49297  -0.49022  -0.48764
 Alpha  occ. eigenvalues --   -0.48402  -0.47422  -0.46302  -0.45735  -0.45231
 Alpha  occ. eigenvalues --   -0.44707  -0.44115  -0.43502  -0.43330  -0.42173
 Alpha  occ. eigenvalues --   -0.41576  -0.41340  -0.39452  -0.38220  -0.36658
 Alpha  occ. eigenvalues --   -0.34223  -0.31996
 Alpha virt. eigenvalues --   -0.03786  -0.02987  -0.01160   0.01558   0.04275
 Alpha virt. eigenvalues --    0.06448   0.08175   0.08347   0.09267   0.10278
 Alpha virt. eigenvalues --    0.10667   0.11252   0.12424   0.13178   0.15159

 Mulliken charges:
               1
     1  F   -0.246132
     2  C    0.761525
     3  F   -0.249622
     4  C    0.547836
     5  F   -0.259365
     6  F   -0.253645
     7  C    0.144565
     8  F   -0.295515
     9  C    0.596548
    10  F   -0.263289
    11  C    0.552428
    12  O   -0.474737
    13  O   -0.440688
    14  F   -0.277007
    15  C    0.517796
    16  F   -0.254250
    17  C    0.574499
    18  F   -0.258702
    19  C    0.577453
    20  N   -0.670043
    21  C    0.336117
    22  C   -0.084612
    23  C    0.089336
    24  C    0.237746
    25  N   -0.455752
    26  C   -0.078238
    27  C    0.101892
    28  C    0.230159
    29  N   -0.454343
    30  C   -0.122838
    31  O   -0.472440
    32  F   -0.285606
    33  O   -0.517824
    34  H    0.362296
    35  H    0.305723
    36  H    0.177646
    37  H    0.156406
    38  H    0.144680
 Sum of Mulliken charges =   0.00000

 Dipole moment (field-independent basis, Debye):
    X=              4.1397    Y=             -2.9692    Z=              3.5376  Tot=              6.2022
 Quadrupole moment (field-independent basis, Debye-Ang):
   XX=           -198.9470   YY=           -177.2892   ZZ=           -207.8014
   XY=             -9.8155   XZ=             -8.9439   YZ=             10.5019

 Normal termination of Gaussian 09 at Mon Feb  3 21:48:25 2025.
