 Gaussian 09, Revision D.01,
 Gaussian 09:  ES64L-G09RevD.01 24-Apr-2013

 ----------------------------------------------------------------------
 #p CAM-B3LYP/6-31G(d,p) opt SCRF=(PCM,Solvent=Generic,Read) NoSymm out
 =wfn
 ----------------------------------------------------------------------

 --------------
 Title DBE0_neu
 --------------
 Symbolic Z-matrix:
 Charge =  0 Multiplicity = 1

 SCF Done:  E(RCAM-B3LYP) =  -2108.41702313     A.U. after   13 cycles
 SCF Done:  E(RCAM-B3LYP) =  -2108.43664321     A.U. after   13 cycles
 SCF Done:  E(RCAM-B3LYP) =  -2108.44374434     A.U. after   13 cycles
 SCF Done:  E(RCAM-B3LYP) =  -2108.44747640     A.U. after   11 cycles
 SCF Done:  E(RCAM-B3LYP) =  -2108.44540069     A.U. after   12 cycles
 SCF Done:  E(RCAM-B3LYP) =  -2108.44822006     A.U. after    9 cycles
 SCF Done:  E(RCAM-B3LYP) =  -2108.44671425     A.U. after   12 cycles
 SCF Done:  E(RCAM-B3LYP) =  -2108.44861538     A.U. after    8 cycles
 SCF Done:  E(RCAM-B3LYP) =  -2108.44902720     A.U. after   12 cycles
 SCF Done:  E(RCAM-B3LYP) =  -2108.45000697     A.U. after   12 cycles
 SCF Done:  E(RCAM-B3LYP) =  -2108.45234666     A.U. after    9 cycles
 SCF Done:  E(RCAM-B3LYP) =  -2108.45234791     A.U. after    9 cycles
 SCF Done:  E(RCAM-B3LYP) =  -2108.45234848     A.U. after    8 cycles
 SCF Done:  E(RCAM-B3LYP) =  -2108.45234870     A.U. after    8 cycles
 SCF Done:  E(RCAM-B3LYP) =  -2108.45234884     A.U. after    7 cycles
 SCF Done:  E(RCAM-B3LYP) =  -2108.45234898     A.U. after    7 cycles
 SCF Done:  E(RCAM-B3LYP) =  -2108.45234907     A.U. after    7 cycles
 SCF Done:  E(RCAM-B3LYP) =  -2108.45234911     A.U. after    6 cycles
 SCF Done:  E(RCAM-B3LYP) =  -2108.45234912     A.U. after    5 cycles
 SCF Done:  E(RCAM-B3LYP) =  -2108.45234912     A.U. after    5 cycles
 Optimization completed.
    -- Stationary point found.

                          Input orientation:
 ---------------------------------------------------------------------
 Center     Atomic      Atomic             Coordinates (Angstroms)
 Number     Number       Type             X           Y           Z
 ---------------------------------------------------------------------
      1          9           0        7.604843   -0.841492    1.600261
      2          6           0        6.381510   -1.101266    2.077533
      3          9           0        6.490349   -1.328821    3.387821
      4          6           0        5.746773   -2.293510    1.335087
      5          9           0        4.938218   -2.961472    2.174722
      6          9           0        6.678536   -3.123116    0.860810
      7          6           0        4.955412   -1.588248    0.214213
      8          9           0        5.918122   -1.246029   -0.702014
      9          6           0        3.953226   -2.508843   -0.503650
     10          9           0        3.002272   -2.910933    0.353688
     11          6           0        3.282954   -2.032890   -1.807889
     12          8           0        3.867227   -0.966080   -2.341584
     13          8           0        2.389431   -2.665975   -2.294898
     14          9           0        4.680868   -3.606719   -0.857188
     15          6           0        4.554553   -0.240325    0.896140
     16          9           0        4.630040    0.761471   -0.008572
     17          6           0        3.196187   -0.080684    1.617763
     18          9           0        3.329837    0.957523    2.483977
     19          6           0        2.013489    0.186625    0.676879
     20          7           0        1.178247    1.148630    1.078568
     21          6           0       -0.024388    1.467594    0.321580
     22          6           0       -1.177599    0.505323    0.661565
     23          7           0       -2.379016    0.659518   -0.137253
     24          6           0       -2.201808    0.285202   -1.540175
     25          6           0       -3.459038   -0.325082   -2.164730
     26          6           0       -3.958026   -1.593620   -1.470582
     27          6           0       -3.002611   -2.779712   -1.579152
     28          6           0       -3.081558    1.927170    0.027720
     29          6           0       -3.612687    2.157929    1.440106
     30          6           0       -4.474926    3.417447    1.568100
     31          6           0       -5.802488    3.354082    0.815542
     32          8           0        1.890389   -0.477939   -0.341559
     33          9           0        2.956422   -1.188839    2.352355
     34          8           0        5.546410   -0.027129    1.871472
     35          1           0        3.390159   -0.755683   -3.161320
     36          1           0        1.386178    1.636691    1.936583
     37          1           0        0.223660    1.395732   -0.739448
     38          1           0       -0.287232    2.504316    0.539056
     39          1           0       -0.809248   -0.516015    0.528649
     40          1           0       -1.426520    0.611481    1.721474
     41          1           0       -1.880781    1.145001   -2.153721
     42          1           0       -1.387844   -0.443973   -1.591502
     43          1           0       -4.263256    0.419302   -2.174499
     44          1           0       -3.237932   -0.541024   -3.217656
     45          1           0       -4.141388   -1.364759   -0.416009
     46          1           0       -4.924972   -1.871336   -1.905032
     47          1           0       -2.048707   -2.583851   -1.081584
     48          1           0       -2.785071   -3.019154   -2.625318
     49          1           0       -3.431429   -3.673119   -1.116979
     50          1           0       -2.460787    2.792396   -0.274478
     51          1           0       -3.926160    1.914260   -0.664995
     52          1           0       -2.777529    2.239292    2.144514
     53          1           0       -4.190174    1.276545    1.742448
     54          1           0       -4.678331    3.590430    2.630345
     55          1           0       -3.900255    4.287537    1.226055
     56          1           0       -6.402551    4.248070    1.005327
     57          1           0       -6.389948    2.485830    1.130654
     58          1           0       -5.661043    3.282241   -0.266266
 ---------------------------------------------------------------------

 Alpha  occ. eigenvalues --  -24.82329 -24.82281 -24.82042 -24.82012 -24.81931
 Alpha  occ. eigenvalues --  -24.81702 -24.81586 -24.81127 -24.80952 -24.80681
 Alpha  occ. eigenvalues --  -19.30835 -19.29001 -19.23154 -19.22590 -14.46698
 Alpha  occ. eigenvalues --  -14.39619 -10.51394 -10.47383 -10.47108 -10.46907
 Alpha  occ. eigenvalues --  -10.46530 -10.42281 -10.41518 -10.40117 -10.30705
 Alpha  occ. eigenvalues --  -10.28667 -10.27897 -10.27578 -10.25566 -10.25299
 Alpha  occ. eigenvalues --  -10.24640 -10.24637 -10.24194 -10.23638  -1.39984
 Alpha  occ. eigenvalues --   -1.38094  -1.37590  -1.36570  -1.35242  -1.33032
 Alpha  occ. eigenvalues --   -1.32062  -1.31517  -1.31050  -1.30115  -1.21320
 Alpha  occ. eigenvalues --   -1.21043  -1.15667  -1.12122  -1.04098  -1.00617
 Alpha  occ. eigenvalues --   -0.93706  -0.89763  -0.88016  -0.87065  -0.85864
 Alpha  occ. eigenvalues --   -0.84599  -0.81625  -0.80311  -0.78281  -0.76993
 Alpha  occ. eigenvalues --   -0.75336  -0.74052  -0.72266  -0.71827  -0.70443
 Alpha  occ. eigenvalues --   -0.69701  -0.69203  -0.68662  -0.67816  -0.67211
 Alpha  occ. eigenvalues --   -0.66820  -0.66055  -0.65646  -0.64878  -0.64490
 Alpha  occ. eigenvalues --   -0.64279  -0.64017  -0.62330  -0.62211  -0.61354
 Alpha  occ. eigenvalues --   -0.58194  -0.57308  -0.56495  -0.56288  -0.55986
 Alpha  occ. eigenvalues --   -0.55367  -0.54910  -0.54613  -0.54298  -0.53945
 Alpha  occ. eigenvalues --   -0.53531  -0.53360  -0.52751  -0.52610  -0.52356
 Alpha  occ. eigenvalues --   -0.52184  -0.51856  -0.51418  -0.51121  -0.50973
 Alpha  occ. eigenvalues --   -0.50842  -0.50449  -0.50086  -0.49908  -0.49818
 Alpha  occ. eigenvalues --   -0.49247  -0.49007  -0.48675  -0.48446  -0.47979
 Alpha  occ. eigenvalues --   -0.47581  -0.46969  -0.46399  -0.45826  -0.45013
 Alpha  occ. eigenvalues --   -0.44646  -0.43813  -0.43659  -0.42732  -0.42571
 Alpha  occ. eigenvalues --   -0.42329  -0.41239  -0.41088  -0.40066  -0.39560
 Alpha  occ. eigenvalues --   -0.39162  -0.38409  -0.37973  -0.37655  -0.37167
 Alpha  occ. eigenvalues --   -0.36098  -0.35773  -0.35045  -0.26696
 Alpha virt. eigenvalues --    0.02704   0.03905   0.06883   0.10631   0.11579
 Alpha virt. eigenvalues --    0.12366   0.12666   0.13040   0.14173   0.14840
 Alpha virt. eigenvalues --    0.15341   0.15630   0.16940   0.17273   0.18089

 Mulliken charges:
               1
     1  F   -0.245296
     2  C    0.756990
     3  F   -0.245766
     4  C    0.513192
     5  F   -0.256803
     6  F   -0.253364
     7  C    0.155763
     8  F   -0.298012
     9  C    0.575839
    10  F   -0.258295
    11  C    0.600772
    12  O   -0.481102
    13  O   -0.452826
    14  F   -0.282474
    15  C    0.523333
    16  F   -0.268609
    17  C    0.547778
    18  F   -0.283497
    19  C    0.581457
    20  N   -0.543276
    21  C   -0.067347
    22  C   -0.052429
    23  N   -0.424001
    24  C   -0.049198
    25  C   -0.179574
    26  C   -0.168820
    27  C   -0.322639
    28  C   -0.022593
    29  C   -0.184668
    30  C   -0.184241
    31  C   -0.319871
    32  O   -0.538512
    33  F   -0.262810
    34  O   -0.506145
    35  H    0.349253
    36  H    0.298480
    37  H    0.145193
    38  H    0.123911
    39  H    0.128161
    40  H    0.105125
    41  H    0.074807
    42  H    0.113421
    43  H    0.089916
    44  H    0.090312
    45  H    0.105000
    46  H    0.087572
    47  H    0.110627
    48  H    0.101080
    49  H    0.101068
    50  H    0.068261
    51  H    0.103455
    52  H    0.087440
    53  H    0.105660
    54  H    0.097697
    55  H    0.092321
    56  H    0.104847
    57  H    0.107375
    58  H    0.106064
 Sum of Mulliken charges =   0.00000

 Dipole moment (field-independent basis, Debye):
    X=             -3.4442    Y=              5.5369    Z=              0.2040  Tot=              6.5239
 Quadrupole moment (field-independent basis, Debye-Ang):
   XX=           -213.1335   YY=           -199.9610   ZZ=           -186.9514
   XY=              5.0536   XZ=             -6.0307   YZ=             -0.3614

 Normal termination of Gaussian 09 at Tue Feb  4 08:38:03 2025.
