 Gaussian 09, Revision D.01,
 Gaussian 09:  ES64L-G09RevD.01 24-Apr-2013

 ----------------------------------------------------------------------
 #p CAM-B3LYP/6-31G(d,p) SCRF=(PCM,Solvent=Generic,Read) NoSymm out=wfn
 ----------------------------------------------------------------------

 -------------------
 Title A156206681_p1
 -------------------
 Symbolic Z-matrix:
 Charge =  1 Multiplicity = 2

                          Input orientation:
 ---------------------------------------------------------------------
 Center     Atomic      Atomic             Coordinates (Angstroms)
 Number     Number       Type             X           Y           Z
 ---------------------------------------------------------------------
      1          6           0        2.229218    1.676448    0.047715
      2          6           0        1.148326    0.895493   -0.131553
      3          7           0       -0.070442    1.418079   -0.574961
      4          6           0       -0.346522    2.867126   -0.702852
      5          9           0       -1.325890    3.096704   -1.621392
      6          9           0        0.744772    3.452264   -1.294333
      7          6           0       -0.653117    3.650349    0.601896
      8          9           0        0.344450    3.335551    1.507627
      9          8           0       -0.527009    5.079816    0.518891
     10          6           0       -1.250566    5.685080   -0.521920
     11          9           0       -1.284946    7.011384   -0.298791
     12          9           0       -0.637364    5.462929   -1.693568
     13          9           0       -2.504247    5.224062   -0.564779
     14          6           0       -1.964612    3.172289    1.227119
     15          9           0       -3.031082    3.252137    0.414582
     16          9           0       -1.863625    1.885933    1.646910
     17          9           0       -2.256558    3.909248    2.330462
     18          6           0       -1.157009    0.590754   -0.803016
     19          8           0       -2.295747    1.038228   -0.896433
     20          7           0       -0.898566   -0.747230   -0.918058
     21          6           0       -2.014374   -1.612566   -1.281511
     22          9           0       -1.517307   -2.757610   -1.834714
     23          9           0       -2.684628   -1.034153   -2.321081
     24          6           0       -3.001159   -1.961332   -0.134301
     25          9           0       -3.658525   -0.829879    0.254977
     26          8           0       -2.272326   -2.386634    1.022370
     27          6           0       -3.087149   -2.945816    2.017834
     28          9           0       -2.388311   -2.988399    3.167227
     29          9           0       -4.191309   -2.208633    2.211584
     30          9           0       -3.420875   -4.198302    1.668493
     31          6           0       -3.997935   -2.955203   -0.747391
     32          9           0       -3.415424   -4.139337   -1.041292
     33          9           0       -4.571227   -2.494976   -1.880679
     34          9           0       -5.016050   -3.227162    0.105192
     35          6           0        0.175196   -1.324579   -0.293362
     36          8           0        0.230168   -2.537571   -0.102057
     37          7           0        1.185305   -0.474274    0.131929
     38          6           0        2.306814   -1.170628    0.808537
     39          9           0        2.991748   -0.294006    1.601484
     40          9           0        1.787940   -2.046044    1.714403
     41          6           0        3.302310   -1.873385   -0.152293
     42          9           0        2.648840   -2.772616   -0.938722
     43          8           0        3.830383   -0.882304   -1.050634
     44          6           0        4.898517   -1.360309   -1.827970
     45          9           0        5.064239   -0.527221   -2.871698
     46          9           0        6.017609   -1.346504   -1.086579
     47          9           0        4.657956   -2.595233   -2.289378
     48          6           0        4.310635   -2.592709    0.753070
     49          9           0        3.731942   -3.443528    1.625804
     50          9           0        5.047419   -1.712865    1.470451
     51          9           0        5.187613   -3.331016    0.030659
     52          1           0        3.205589    1.320635    0.352679
     53          1           0        2.256915    2.747517   -0.110626
 ---------------------------------------------------------------------

 SCF Done:  E(UCAM-B3LYP) =  -3845.58098442     A.U. after   19 cycles

 Alpha  occ. eigenvalues --  -24.90215 -24.89344 -24.88963 -24.88536 -24.88503
 Alpha  occ. eigenvalues --  -24.87277 -24.87209 -24.86771 -24.86735 -24.86520
 Alpha  occ. eigenvalues --  -24.86452 -24.86433 -24.86315 -24.86269 -24.86267
 Alpha  occ. eigenvalues --  -24.86243 -24.86171 -24.85904 -24.85688 -24.85679
 Alpha  occ. eigenvalues --  -24.85585 -24.85489 -24.85488 -24.85328 -24.85284
 Alpha  occ. eigenvalues --  -24.84943 -24.84625 -19.37518 -19.37065 -19.35757
 Alpha  occ. eigenvalues --  -19.31231 -19.30863 -14.63471 -14.63317 -14.59203
 Alpha  occ. eigenvalues --  -10.62926 -10.62559 -10.61726 -10.60366 -10.60237
 Alpha  occ. eigenvalues --  -10.58879 -10.58810 -10.57558 -10.57456 -10.54562
 Alpha  occ. eigenvalues --  -10.54130 -10.53824 -10.53334 -10.53221 -10.51995
 Alpha  occ. eigenvalues --  -10.43063  -1.46583  -1.46482  -1.45757  -1.45244
 Alpha  occ. eigenvalues --   -1.45181  -1.44894  -1.44373  -1.43869  -1.42434
 Alpha  occ. eigenvalues --   -1.40458  -1.40064  -1.38333  -1.38146  -1.37942
 Alpha  occ. eigenvalues --   -1.36951  -1.36565  -1.36199  -1.36080  -1.35718
 Alpha  occ. eigenvalues --   -1.35573  -1.35560  -1.35459  -1.35184  -1.35117
 Alpha  occ. eigenvalues --   -1.35085  -1.34302  -1.34022  -1.30273  -1.25275
 Alpha  occ. eigenvalues --   -1.24784  -1.24331  -1.23280  -1.21658  -1.16126
 Alpha  occ. eigenvalues --   -1.15632  -1.02875  -0.99010  -0.98090  -0.96372
 Alpha  occ. eigenvalues --   -0.92234  -0.90536  -0.88497  -0.86038  -0.85680
 Alpha  occ. eigenvalues --   -0.85379  -0.84714  -0.83886  -0.82805  -0.81105
 Alpha  occ. eigenvalues --   -0.80108  -0.79153  -0.77775  -0.77347  -0.76632
 Alpha  occ. eigenvalues --   -0.76375  -0.75747  -0.75151  -0.74970  -0.74603
 Alpha  occ. eigenvalues --   -0.73862  -0.73475  -0.72921  -0.72727  -0.72454
 Alpha  occ. eigenvalues --   -0.72329  -0.72047  -0.71911  -0.71703  -0.71230
 Alpha  occ. eigenvalues --   -0.70900  -0.70661  -0.70526  -0.70405  -0.69894
 Alpha  occ. eigenvalues --   -0.69627  -0.69558  -0.68940  -0.68469  -0.67991
 Alpha  occ. eigenvalues --   -0.67727  -0.64250  -0.63870  -0.63425  -0.62717
 Alpha  occ. eigenvalues --   -0.62402  -0.61956  -0.61745  -0.61220  -0.61143
 Alpha  occ. eigenvalues --   -0.60862  -0.60588  -0.60379  -0.60208  -0.59956
 Alpha  occ. eigenvalues --   -0.59812  -0.59593  -0.59235  -0.59149  -0.58998
 Alpha  occ. eigenvalues --   -0.58817  -0.58745  -0.58611  -0.58404  -0.58311
 Alpha  occ. eigenvalues --   -0.58178  -0.57794  -0.57521  -0.57320  -0.57227
 Alpha  occ. eigenvalues --   -0.57001  -0.56771  -0.56561  -0.56289  -0.55975
 Alpha  occ. eigenvalues --   -0.55927  -0.55889  -0.55547  -0.55149  -0.55030
 Alpha  occ. eigenvalues --   -0.54874  -0.54723  -0.54558  -0.54253  -0.54219
 Alpha  occ. eigenvalues --   -0.53944  -0.53717  -0.53673  -0.53621  -0.53133
 Alpha  occ. eigenvalues --   -0.52984  -0.52822  -0.52766  -0.52690  -0.52422
 Alpha  occ. eigenvalues --   -0.52271  -0.51947  -0.51863  -0.51793  -0.51389
 Alpha  occ. eigenvalues --   -0.50918  -0.50393  -0.49032  -0.48751  -0.48199
 Alpha  occ. eigenvalues --   -0.47476  -0.46830  -0.46215  -0.44520  -0.43744
 Alpha  occ. eigenvalues --   -0.43204
 Alpha virt. eigenvalues --   -0.09728  -0.06260  -0.01401  -0.00359   0.00180
 Alpha virt. eigenvalues --    0.01235   0.02614   0.04103   0.06204   0.06507
 Alpha virt. eigenvalues --    0.07996   0.09272   0.09770   0.11677   0.11936

  Beta  occ. eigenvalues --  -24.90201 -24.89333 -24.88964 -24.88511 -24.88491
  Beta  occ. eigenvalues --  -24.87274 -24.87208 -24.86771 -24.86734 -24.86518
  Beta  occ. eigenvalues --  -24.86452 -24.86433 -24.86315 -24.86269 -24.86267
  Beta  occ. eigenvalues --  -24.86243 -24.86171 -24.85904 -24.85688 -24.85678
  Beta  occ. eigenvalues --  -24.85585 -24.85489 -24.85488 -24.85328 -24.85284
  Beta  occ. eigenvalues --  -24.84943 -24.84625 -19.37512 -19.37059 -19.35757
  Beta  occ. eigenvalues --  -19.31146 -19.30778 -14.63160 -14.62985 -14.59173
  Beta  occ. eigenvalues --  -10.62925 -10.62559 -10.61726 -10.60381 -10.60252
  Beta  occ. eigenvalues --  -10.58879 -10.58808 -10.57558 -10.57458 -10.54467
  Beta  occ. eigenvalues --  -10.54119 -10.53814 -10.53376 -10.53265 -10.51993
  Beta  occ. eigenvalues --  -10.42095  -1.46575  -1.46474  -1.45738  -1.45244
  Beta  occ. eigenvalues --   -1.45171  -1.44885  -1.44366  -1.43868  -1.42431
  Beta  occ. eigenvalues --   -1.40417  -1.40060  -1.38332  -1.38119  -1.37929
  Beta  occ. eigenvalues --   -1.36950  -1.36564  -1.36198  -1.36077  -1.35717
  Beta  occ. eigenvalues --   -1.35572  -1.35557  -1.35459  -1.35184  -1.35116
  Beta  occ. eigenvalues --   -1.35084  -1.34301  -1.34022  -1.30004  -1.25049
  Beta  occ. eigenvalues --   -1.24767  -1.24314  -1.23267  -1.21241  -1.15587
  Beta  occ. eigenvalues --   -1.15499  -1.01092  -0.98795  -0.98036  -0.96211
  Beta  occ. eigenvalues --   -0.92147  -0.90465  -0.87755  -0.85990  -0.85619
  Beta  occ. eigenvalues --   -0.85302  -0.84576  -0.83683  -0.82668  -0.80989
  Beta  occ. eigenvalues --   -0.80041  -0.79125  -0.77712  -0.77271  -0.76604
  Beta  occ. eigenvalues --   -0.76273  -0.75721  -0.75123  -0.74930  -0.74547
  Beta  occ. eigenvalues --   -0.73833  -0.73434  -0.72912  -0.72713  -0.72413
  Beta  occ. eigenvalues --   -0.72320  -0.72032  -0.71834  -0.71665  -0.71057
  Beta  occ. eigenvalues --   -0.70838  -0.70636  -0.70410  -0.70257  -0.69838
  Beta  occ. eigenvalues --   -0.69524  -0.69244  -0.68838  -0.68260  -0.67728
  Beta  occ. eigenvalues --   -0.67421  -0.64173  -0.63601  -0.63071  -0.62586
  Beta  occ. eigenvalues --   -0.62383  -0.61755  -0.61576  -0.61125  -0.61020
  Beta  occ. eigenvalues --   -0.60790  -0.60531  -0.60067  -0.59937  -0.59824
  Beta  occ. eigenvalues --   -0.59770  -0.59533  -0.59207  -0.59076  -0.58839
  Beta  occ. eigenvalues --   -0.58781  -0.58685  -0.58399  -0.58258  -0.58172
  Beta  occ. eigenvalues --   -0.58072  -0.57742  -0.57393  -0.57310  -0.56991
  Beta  occ. eigenvalues --   -0.56940  -0.56689  -0.56494  -0.56237  -0.55936
  Beta  occ. eigenvalues --   -0.55888  -0.55856  -0.55515  -0.55098  -0.54921
  Beta  occ. eigenvalues --   -0.54744  -0.54622  -0.54540  -0.54223  -0.54199
  Beta  occ. eigenvalues --   -0.53819  -0.53704  -0.53645  -0.53533  -0.53121
  Beta  occ. eigenvalues --   -0.52948  -0.52818  -0.52751  -0.52671  -0.52399
  Beta  occ. eigenvalues --   -0.52218  -0.51939  -0.51850  -0.51769  -0.51366
  Beta  occ. eigenvalues --   -0.50915  -0.50254  -0.48836  -0.48627  -0.47784
  Beta  occ. eigenvalues --   -0.47342  -0.45890  -0.45349  -0.43711  -0.43106
  Beta virt. eigenvalues --   -0.23881  -0.06034  -0.05436  -0.01221  -0.00273
  Beta virt. eigenvalues --    0.00419   0.01619   0.02627   0.04455   0.06347
  Beta virt. eigenvalues --    0.06769   0.08190   0.09400   0.09886   0.11891

 Mulliken charges and spin densities:
               1          2
     1  C   -0.167835   0.658199
     2  C    0.732203   0.078269
     3  N   -0.652660   0.130336
     4  C    0.737537  -0.007507
     5  F   -0.220677  -0.000125
     6  F   -0.252887   0.002956
     7  C    0.451926   0.003872
     8  F   -0.272005   0.004559
     9  O   -0.489630   0.001842
    10  C    0.990309  -0.000058
    11  F   -0.230776   0.000086
    12  F   -0.238079   0.000004
    13  F   -0.231065  -0.000002
    14  C    0.817513   0.000074
    15  F   -0.220418   0.000068
    16  F   -0.252417   0.000549
    17  F   -0.240945   0.000025
    18  C    0.866603  -0.022251
    19  O   -0.426541   0.033852
    20  N   -0.657043   0.014289
    21  C    0.761817  -0.000519
    22  F   -0.242316   0.000158
    23  F   -0.247376   0.000312
    24  C    0.441325   0.000897
    25  F   -0.249463   0.000027
    26  O   -0.514331   0.000034
    27  C    1.001396   0.000009
    28  F   -0.236780  -0.000002
    29  F   -0.239214   0.000019
    30  F   -0.238849   0.000005
    31  C    0.819604   0.000022
    32  F   -0.242369   0.000007
    33  F   -0.240372   0.000010
    34  F   -0.253900   0.000100
    35  C    0.892018  -0.023768
    36  O   -0.432054   0.033960
    37  N   -0.673868   0.141206
    38  C    0.748094  -0.009110
    39  F   -0.243958   0.002940
    40  F   -0.222650   0.002803
    41  C    0.443591   0.003258
    42  F   -0.238175   0.000230
    43  O   -0.528090   0.000686
    44  C    1.005454   0.000220
    45  F   -0.233447   0.000013
    46  F   -0.236128  -0.000001
    47  F   -0.231997   0.000098
    48  C    0.827408   0.000696
    49  F   -0.234470   0.000016
    50  F   -0.243659   0.000031
    51  F   -0.247922   0.000247
    52  H    0.243110  -0.026883
    53  H    0.244459  -0.026753
 Sum of Mulliken charges =   1.00000   1.00000

 Dipole moment (field-independent basis, Debye):
    X=              7.4247    Y=              5.7864    Z=             -0.8252  Tot=              9.4493
 Quadrupole moment (field-independent basis, Debye-Ang):
   XX=           -243.4188   YY=           -248.7486   ZZ=           -260.5204
   XY=              6.2315   XZ=             -2.7708   YZ=             -1.4090

 Normal termination of Gaussian 09 at Sun Mar  3 18:18:43 2024.
