 Gaussian 09, Revision D.01,
 Gaussian 09:  ES64L-G09RevD.01 24-Apr-2013

 ----------------------------------------------------------------------
 #p CAM-B3LYP/6-31G(d,p) SCRF=(PCM,Solvent=Generic,Read) NoSymm out=wfn
 ----------------------------------------------------------------------

 ------------------
 Title A156206681_0
 ------------------
 Symbolic Z-matrix:
 Charge =  0 Multiplicity = 1

                          Input orientation:
 ---------------------------------------------------------------------
 Center     Atomic      Atomic             Coordinates (Angstroms)
 Number     Number       Type             X           Y           Z
 ---------------------------------------------------------------------
      1          6           0        2.229218    1.676448    0.047715
      2          6           0        1.148326    0.895493   -0.131553
      3          7           0       -0.070442    1.418079   -0.574961
      4          6           0       -0.346522    2.867126   -0.702852
      5          9           0       -1.325890    3.096704   -1.621392
      6          9           0        0.744772    3.452264   -1.294333
      7          6           0       -0.653117    3.650349    0.601896
      8          9           0        0.344450    3.335551    1.507627
      9          8           0       -0.527009    5.079816    0.518891
     10          6           0       -1.250566    5.685080   -0.521920
     11          9           0       -1.284946    7.011384   -0.298791
     12          9           0       -0.637364    5.462929   -1.693568
     13          9           0       -2.504247    5.224062   -0.564779
     14          6           0       -1.964612    3.172289    1.227119
     15          9           0       -3.031082    3.252137    0.414582
     16          9           0       -1.863625    1.885933    1.646910
     17          9           0       -2.256558    3.909248    2.330462
     18          6           0       -1.157009    0.590754   -0.803016
     19          8           0       -2.295747    1.038228   -0.896433
     20          7           0       -0.898566   -0.747230   -0.918058
     21          6           0       -2.014374   -1.612566   -1.281511
     22          9           0       -1.517307   -2.757610   -1.834714
     23          9           0       -2.684628   -1.034153   -2.321081
     24          6           0       -3.001159   -1.961332   -0.134301
     25          9           0       -3.658525   -0.829879    0.254977
     26          8           0       -2.272326   -2.386634    1.022370
     27          6           0       -3.087149   -2.945816    2.017834
     28          9           0       -2.388311   -2.988399    3.167227
     29          9           0       -4.191309   -2.208633    2.211584
     30          9           0       -3.420875   -4.198302    1.668493
     31          6           0       -3.997935   -2.955203   -0.747391
     32          9           0       -3.415424   -4.139337   -1.041292
     33          9           0       -4.571227   -2.494976   -1.880679
     34          9           0       -5.016050   -3.227162    0.105192
     35          6           0        0.175196   -1.324579   -0.293362
     36          8           0        0.230168   -2.537571   -0.102057
     37          7           0        1.185305   -0.474274    0.131929
     38          6           0        2.306814   -1.170628    0.808537
     39          9           0        2.991748   -0.294006    1.601484
     40          9           0        1.787940   -2.046044    1.714403
     41          6           0        3.302310   -1.873385   -0.152293
     42          9           0        2.648840   -2.772616   -0.938722
     43          8           0        3.830383   -0.882304   -1.050634
     44          6           0        4.898517   -1.360309   -1.827970
     45          9           0        5.064239   -0.527221   -2.871698
     46          9           0        6.017609   -1.346504   -1.086579
     47          9           0        4.657956   -2.595233   -2.289378
     48          6           0        4.310635   -2.592709    0.753070
     49          9           0        3.731942   -3.443528    1.625804
     50          9           0        5.047419   -1.712865    1.470451
     51          9           0        5.187613   -3.331016    0.030659
     52          1           0        3.205589    1.320635    0.352679
     53          1           0        2.256915    2.747517   -0.110626
 ---------------------------------------------------------------------

 SCF Done:  E(RCAM-B3LYP) =  -3845.85225759     A.U. after   13 cycles

 Alpha  occ. eigenvalues --  -24.84217 -24.84134 -24.84081 -24.83823 -24.83706
 Alpha  occ. eigenvalues --  -24.83633 -24.83617 -24.83602 -24.83589 -24.83575
 Alpha  occ. eigenvalues --  -24.83547 -24.83547 -24.83505 -24.83423 -24.83391
 Alpha  occ. eigenvalues --  -24.83327 -24.83274 -24.83228 -24.83033 -24.83017
 Alpha  occ. eigenvalues --  -24.82938 -24.82923 -24.82885 -24.82822 -24.82737
 Alpha  occ. eigenvalues --  -24.82692 -24.82612 -19.33571 -19.33451 -19.33038
 Alpha  occ. eigenvalues --  -19.23967 -19.23595 -14.52763 -14.52751 -14.52434
 Alpha  occ. eigenvalues --  -10.59981 -10.59825 -10.59577 -10.55703 -10.55347
 Alpha  occ. eigenvalues --  -10.55333 -10.54102 -10.54001 -10.53432 -10.49436
 Alpha  occ. eigenvalues --  -10.49418 -10.48979 -10.46277 -10.46130 -10.39665
 Alpha  occ. eigenvalues --  -10.27156  -1.43617  -1.43615  -1.43216  -1.42078
 Alpha  occ. eigenvalues --   -1.41742  -1.41696  -1.39683  -1.39636  -1.39009
 Alpha  occ. eigenvalues --   -1.36177  -1.35687  -1.35515  -1.34292  -1.33961
 Alpha  occ. eigenvalues --   -1.33644  -1.33513  -1.33360  -1.33276  -1.33176
 Alpha  occ. eigenvalues --   -1.32710  -1.32612  -1.32454  -1.32289  -1.32107
 Alpha  occ. eigenvalues --   -1.32089  -1.32048  -1.31513  -1.22481  -1.20945
 Alpha  occ. eigenvalues --   -1.20762  -1.20578  -1.17879  -1.12458  -1.09069
 Alpha  occ. eigenvalues --   -1.06995  -0.94285  -0.93557  -0.93222  -0.89282
 Alpha  occ. eigenvalues --   -0.86556  -0.84273  -0.82800  -0.82262  -0.82221
 Alpha  occ. eigenvalues --   -0.80974  -0.79497  -0.77546  -0.76565  -0.75945
 Alpha  occ. eigenvalues --   -0.74838  -0.74313  -0.73907  -0.73417  -0.73149
 Alpha  occ. eigenvalues --   -0.72712  -0.72130  -0.71730  -0.71007  -0.70858
 Alpha  occ. eigenvalues --   -0.70521  -0.70369  -0.70042  -0.69777  -0.69180
 Alpha  occ. eigenvalues --   -0.68861  -0.68799  -0.68521  -0.68014  -0.67850
 Alpha  occ. eigenvalues --   -0.67289  -0.66852  -0.66564  -0.66532  -0.65972
 Alpha  occ. eigenvalues --   -0.65331  -0.64471  -0.64280  -0.63992  -0.61368
 Alpha  occ. eigenvalues --   -0.60500  -0.59860  -0.59142  -0.58552  -0.57909
 Alpha  occ. eigenvalues --   -0.57693  -0.57471  -0.57428  -0.57200  -0.57185
 Alpha  occ. eigenvalues --   -0.57010  -0.56634  -0.56471  -0.56154  -0.56028
 Alpha  occ. eigenvalues --   -0.55944  -0.55886  -0.55824  -0.55583  -0.55451
 Alpha  occ. eigenvalues --   -0.55375  -0.54963  -0.54843  -0.54773  -0.54391
 Alpha  occ. eigenvalues --   -0.54293  -0.54231  -0.53990  -0.53759  -0.53435
 Alpha  occ. eigenvalues --   -0.53098  -0.52922  -0.52698  -0.52638  -0.52572
 Alpha  occ. eigenvalues --   -0.52359  -0.52308  -0.52208  -0.51824  -0.51405
 Alpha  occ. eigenvalues --   -0.51135  -0.50973  -0.50867  -0.50741  -0.50601
 Alpha  occ. eigenvalues --   -0.50509  -0.50391  -0.50251  -0.50127  -0.49961
 Alpha  occ. eigenvalues --   -0.49911  -0.49696  -0.49531  -0.49432  -0.49070
 Alpha  occ. eigenvalues --   -0.48935  -0.48859  -0.48732  -0.48462  -0.48195
 Alpha  occ. eigenvalues --   -0.46298  -0.45774  -0.45385  -0.44779  -0.44553
 Alpha  occ. eigenvalues --   -0.43811  -0.39795  -0.39182  -0.37906  -0.36786
 Alpha  occ. eigenvalues --   -0.30417
 Alpha virt. eigenvalues --    0.00622   0.02013   0.04626   0.05019   0.05462
 Alpha virt. eigenvalues --    0.06429   0.07628   0.09026   0.11105   0.13123
 Alpha virt. eigenvalues --    0.14235   0.14781   0.16284   0.16521   0.17353

 Mulliken charges:
               1
     1  C   -0.335673
     2  C    0.616908
     3  N   -0.676840
     4  C    0.743042
     5  F   -0.244592
     6  F   -0.267378
     7  C    0.445727
     8  F   -0.273125
     9  O   -0.504334
    10  C    0.983817
    11  F   -0.239006
    12  F   -0.239888
    13  F   -0.235385
    14  C    0.810326
    15  F   -0.228034
    16  F   -0.252055
    17  F   -0.252992
    18  C    0.832563
    19  O   -0.493546
    20  N   -0.657543
    21  C    0.758475
    22  F   -0.253319
    23  F   -0.258662
    24  C    0.439196
    25  F   -0.253254
    26  O   -0.507093
    27  C    0.996763
    28  F   -0.239295
    29  F   -0.242864
    30  F   -0.243385
    31  C    0.812412
    32  F   -0.245882
    33  F   -0.244006
    34  F   -0.259740
    35  C    0.856982
    36  O   -0.501486
    37  N   -0.701714
    38  C    0.753137
    39  F   -0.256281
    40  F   -0.247362
    41  C    0.437015
    42  F   -0.249172
    43  O   -0.512370
    44  C    0.996445
    45  F   -0.238598
    46  F   -0.242806
    47  F   -0.238672
    48  C    0.815455
    49  F   -0.240930
    50  F   -0.248392
    51  F   -0.257600
    52  H    0.142030
    53  H    0.142985
 Sum of Mulliken charges =   0.00000

 Dipole moment (field-independent basis, Debye):
    X=              2.8630    Y=              2.1068    Z=             -0.1662  Tot=              3.5585
 Quadrupole moment (field-independent basis, Debye-Ang):
   XX=           -271.0893   YY=           -275.4378   ZZ=           -268.2173
   XY=              3.0745   XZ=             -3.8373   YZ=             -0.7207

 Normal termination of Gaussian 09 at Sun Mar  3 18:15:34 2024.
