 Gaussian 09, Revision D.01,
 Gaussian 09:  ES64L-G09RevD.01 24-Apr-2013

 ----------------------------------------------------------------------
 #p CAM-B3LYP/6-31G(d,p) SCRF=(PCM,Solvent=Generic,Read) NoSymm out=wfn
 ----------------------------------------------------------------------

 ------------------
 Title A687474392_0
 ------------------
 Symbolic Z-matrix:
 Charge =  0 Multiplicity = 1

                          Input orientation:
 ---------------------------------------------------------------------
 Center     Atomic      Atomic             Coordinates (Angstroms)
 Number     Number       Type             X           Y           Z
 ---------------------------------------------------------------------
      1          6           0        1.298989    5.138412    0.255871
      2          6           0        0.963614    3.673368    0.481421
      3          6           0        1.130608    2.856732   -0.802391
      4          7           0        0.804635    1.445988   -0.591065
      5          6           0        1.796951    0.613625   -0.116067
      6          8           0        2.953629    1.003102    0.050992
      7          7           0        1.408535   -0.677442    0.177957
      8          6           0        2.409932   -1.589321    0.733178
      9          6           0        3.161932   -2.334652   -0.371693
     10          6           0        4.202329   -3.280967    0.204213
     11          6           0        0.147040   -1.168084   -0.081050
     12          8           0       -0.163952   -2.324216    0.203328
     13          7           0       -0.748674   -0.302208   -0.648727
     14          6           0       -2.112972   -0.754988   -0.867008
     15          9           0       -2.580798   -0.120434   -1.992697
     16          9           0       -2.115000   -2.062243   -1.244941
     17          6           0       -3.138212   -0.507076    0.278606
     18          9           0       -2.832026    0.695562    0.881934
     19          8           0       -4.483341   -0.281548   -0.178602
     20          6           0       -5.148310   -1.432844   -0.628123
     21          9           0       -6.296932   -1.062935   -1.222237
     22          9           0       -4.399896   -2.100995   -1.513567
     23          9           0       -5.438610   -2.226432    0.413580
     24          6           0       -2.983308   -1.571813    1.363692
     25          9           0       -1.791658   -1.469530    1.995025
     26          9           0       -3.929993   -1.412871    2.324063
     27          9           0       -3.104949   -2.828575    0.894905
     28          6           0       -0.504680    1.044789   -0.757450
     29          8           0       -1.401952    1.857769   -0.976954
     30          1           0        2.335221    5.256800   -0.076537
     31          1           0        0.642236    5.578989   -0.501002
     32          1           0        1.173601    5.703426    1.184800
     33          1           0        1.611386    3.271527    1.269397
     34          1           0       -0.066067    3.590615    0.848642
     35          1           0        0.484469    3.263029   -1.589824
     36          1           0        2.162219    2.939403   -1.164752
     37          1           0        1.918305   -2.308225    1.399309
     38          1           0        3.118095   -1.022184    1.348964
     39          1           0        2.456142   -2.904532   -0.987482
     40          1           0        3.654726   -1.618125   -1.039386
     41          1           0        4.944375   -2.735046    0.795506
     42          1           0        4.727508   -3.802954   -0.601755
     43          1           0        3.734853   -4.032894    0.847925
 ---------------------------------------------------------------------

 SCF Done:  E(RCAM-B3LYP) =  -1866.98473506     A.U. after   13 cycles

 Alpha  occ. eigenvalues --  -24.83891 -24.83511 -24.83475 -24.83435 -24.83105
 Alpha  occ. eigenvalues --  -24.82895 -24.82446 -24.82216 -24.81511 -19.32939
 Alpha  occ. eigenvalues --  -19.22951 -19.22706 -19.22518 -14.52123 -14.49341
 Alpha  occ. eigenvalues --  -14.49295 -10.59555 -10.55129 -10.52709 -10.48809
 Alpha  occ. eigenvalues --  -10.44772 -10.44733 -10.43699 -10.30869 -10.30844
 Alpha  occ. eigenvalues --  -10.26224 -10.26173 -10.25030 -10.25007  -1.43380
 Alpha  occ. eigenvalues --   -1.41619  -1.38300  -1.35108  -1.33885  -1.33361
 Alpha  occ. eigenvalues --   -1.32618  -1.31968  -1.30713  -1.21459  -1.20283
 Alpha  occ. eigenvalues --   -1.16425  -1.16174  -1.08492  -1.06219  -1.04715
 Alpha  occ. eigenvalues --   -0.92767  -0.88797  -0.87442  -0.84115  -0.82218
 Alpha  occ. eigenvalues --   -0.80866  -0.80263  -0.77791  -0.75011  -0.74913
 Alpha  occ. eigenvalues --   -0.73143  -0.72565  -0.71347  -0.70992  -0.70019
 Alpha  occ. eigenvalues --   -0.68969  -0.68590  -0.67873  -0.67517  -0.67006
 Alpha  occ. eigenvalues --   -0.64571  -0.63615  -0.60857  -0.59840  -0.58465
 Alpha  occ. eigenvalues --   -0.57264  -0.57022  -0.56783  -0.55979  -0.55750
 Alpha  occ. eigenvalues --   -0.55057  -0.54902  -0.54841  -0.54538  -0.54329
 Alpha  occ. eigenvalues --   -0.54100  -0.53514  -0.53269  -0.52600  -0.52421
 Alpha  occ. eigenvalues --   -0.52004  -0.51578  -0.51271  -0.51161  -0.50468
 Alpha  occ. eigenvalues --   -0.50348  -0.49768  -0.49542  -0.48605  -0.48331
 Alpha  occ. eigenvalues --   -0.48104  -0.47729  -0.47302  -0.45770  -0.45636
 Alpha  occ. eigenvalues --   -0.43928  -0.43584  -0.43268  -0.41964  -0.41852
 Alpha  occ. eigenvalues --   -0.40005  -0.39944  -0.38659  -0.38443  -0.37669
 Alpha  occ. eigenvalues --   -0.35592  -0.34876  -0.34510
 Alpha virt. eigenvalues --    0.01721   0.02512   0.06207   0.07156   0.12662
 Alpha virt. eigenvalues --    0.13584   0.14720   0.15767   0.16828   0.17271
 Alpha virt. eigenvalues --    0.18055   0.18346   0.19284   0.19489   0.19803

 Mulliken charges:
               1
     1  C   -0.328292
     2  C   -0.186102
     3  C   -0.051422
     4  N   -0.579312
     5  C    0.828490
     6  O   -0.528810
     7  N   -0.579473
     8  C   -0.052601
     9  C   -0.184807
    10  C   -0.328411
    11  C    0.832374
    12  O   -0.518640
    13  N   -0.626221
    14  C    0.759779
    15  F   -0.275599
    16  F   -0.249685
    17  C    0.435178
    18  F   -0.272019
    19  O   -0.497246
    20  C    0.976447
    21  F   -0.238243
    22  F   -0.234200
    23  F   -0.240729
    24  C    0.817628
    25  F   -0.244287
    26  F   -0.260883
    27  F   -0.244304
    28  C    0.839687
    29  O   -0.513462
    30  H    0.113175
    31  H    0.114108
    32  H    0.114785
    33  H    0.115847
    34  H    0.118859
    35  H    0.146575
    36  H    0.148639
    37  H    0.148730
    38  H    0.148071
    39  H    0.116982
    40  H    0.116728
    41  H    0.113621
    42  H    0.114938
    43  H    0.114103
 Sum of Mulliken charges =   0.00000

 Dipole moment (field-independent basis, Debye):
    X=              2.8461    Y=              0.6133    Z=              0.1423  Tot=              2.9149
 Quadrupole moment (field-independent basis, Debye-Ang):
   XX=           -168.4506   YY=           -160.4887   ZZ=           -159.0838
   XY=             -1.7235   XZ=             -1.6252   YZ=              1.0177

 Normal termination of Gaussian 09 at Sun Mar  3 18:05:41 2024.
