 Gaussian 09, Revision D.01,
 Gaussian 09:  ES64L-G09RevD.01 24-Apr-2013

 ----------------------------------------------------------------------
 #p CAM-B3LYP/6-31G(d,p) SCRF=(PCM,Solvent=Generic,Read) NoSymm out=wfn
 ----------------------------------------------------------------------

 -------------------
 Title A687474392_p1
 -------------------
 Symbolic Z-matrix:
 Charge =  1 Multiplicity = 2

                          Input orientation:
 ---------------------------------------------------------------------
 Center     Atomic      Atomic             Coordinates (Angstroms)
 Number     Number       Type             X           Y           Z
 ---------------------------------------------------------------------
      1          6           0        1.298989    5.138412    0.255871
      2          6           0        0.963614    3.673368    0.481421
      3          6           0        1.130608    2.856732   -0.802391
      4          7           0        0.804635    1.445988   -0.591065
      5          6           0        1.796951    0.613625   -0.116067
      6          8           0        2.953629    1.003102    0.050992
      7          7           0        1.408535   -0.677442    0.177957
      8          6           0        2.409932   -1.589321    0.733178
      9          6           0        3.161932   -2.334652   -0.371693
     10          6           0        4.202329   -3.280967    0.204213
     11          6           0        0.147040   -1.168084   -0.081050
     12          8           0       -0.163952   -2.324216    0.203328
     13          7           0       -0.748674   -0.302208   -0.648727
     14          6           0       -2.112972   -0.754988   -0.867008
     15          9           0       -2.580798   -0.120434   -1.992697
     16          9           0       -2.115000   -2.062243   -1.244941
     17          6           0       -3.138212   -0.507076    0.278606
     18          9           0       -2.832026    0.695562    0.881934
     19          8           0       -4.483341   -0.281548   -0.178602
     20          6           0       -5.148310   -1.432844   -0.628123
     21          9           0       -6.296932   -1.062935   -1.222237
     22          9           0       -4.399896   -2.100995   -1.513567
     23          9           0       -5.438610   -2.226432    0.413580
     24          6           0       -2.983308   -1.571813    1.363692
     25          9           0       -1.791658   -1.469530    1.995025
     26          9           0       -3.929993   -1.412871    2.324063
     27          9           0       -3.104949   -2.828575    0.894905
     28          6           0       -0.504680    1.044789   -0.757450
     29          8           0       -1.401952    1.857769   -0.976954
     30          1           0        2.335221    5.256800   -0.076537
     31          1           0        0.642236    5.578989   -0.501002
     32          1           0        1.173601    5.703426    1.184800
     33          1           0        1.611386    3.271527    1.269397
     34          1           0       -0.066067    3.590615    0.848642
     35          1           0        0.484469    3.263029   -1.589824
     36          1           0        2.162219    2.939403   -1.164752
     37          1           0        1.918305   -2.308225    1.399309
     38          1           0        3.118095   -1.022184    1.348964
     39          1           0        2.456142   -2.904532   -0.987482
     40          1           0        3.654726   -1.618125   -1.039386
     41          1           0        4.944375   -2.735046    0.795506
     42          1           0        4.727508   -3.802954   -0.601755
     43          1           0        3.734853   -4.032894    0.847925
 ---------------------------------------------------------------------

 SCF Done:  E(UCAM-B3LYP) =  -1866.66983067     A.U. after   41 cycles

 Alpha  occ. eigenvalues --  -24.86452 -24.86414 -24.86302 -24.86010 -24.85882
 Alpha  occ. eigenvalues --  -24.85666 -24.85397 -24.85283 -24.84820 -19.35621
 Alpha  occ. eigenvalues --  -19.34938 -19.30594 -19.30412 -14.65037 -14.59049
 Alpha  occ. eigenvalues --  -14.58921 -10.61652 -10.57903 -10.57250 -10.54101
 Alpha  occ. eigenvalues --  -10.52206 -10.52095 -10.51643 -10.39406 -10.36252
 Alpha  occ. eigenvalues --  -10.33186 -10.30484 -10.29320 -10.27850  -1.45502
 Alpha  occ. eigenvalues --   -1.44231  -1.42408  -1.38560  -1.35983  -1.35689
 Alpha  occ. eigenvalues --   -1.34950  -1.34899  -1.34353  -1.30961  -1.25759
 Alpha  occ. eigenvalues --   -1.24318  -1.22946  -1.17832  -1.15269  -1.13683
 Alpha  occ. eigenvalues --   -0.97130  -0.95612  -0.93281  -0.90206  -0.88013
 Alpha  occ. eigenvalues --   -0.87204  -0.84729  -0.83332  -0.81510  -0.80926
 Alpha  occ. eigenvalues --   -0.78759  -0.76322  -0.75305  -0.74472  -0.73942
 Alpha  occ. eigenvalues --   -0.72907  -0.72133  -0.71670  -0.71047  -0.70526
 Alpha  occ. eigenvalues --   -0.69274  -0.68254  -0.67561  -0.66941  -0.63928
 Alpha  occ. eigenvalues --   -0.63544  -0.62217  -0.61737  -0.61411  -0.60822
 Alpha  occ. eigenvalues --   -0.60470  -0.59680  -0.59503  -0.59198  -0.58908
 Alpha  occ. eigenvalues --   -0.58131  -0.57841  -0.57587  -0.57245  -0.56949
 Alpha  occ. eigenvalues --   -0.56382  -0.55463  -0.54810  -0.54525  -0.54322
 Alpha  occ. eigenvalues --   -0.53619  -0.53371  -0.52993  -0.52583  -0.51927
 Alpha  occ. eigenvalues --   -0.51804  -0.51518  -0.51074  -0.50897  -0.50286
 Alpha  occ. eigenvalues --   -0.49549  -0.49002  -0.47758  -0.47685  -0.47224
 Alpha  occ. eigenvalues --   -0.46066  -0.45722  -0.45261  -0.45088  -0.44630
 Alpha  occ. eigenvalues --   -0.43280  -0.42524  -0.42367
 Alpha virt. eigenvalues --   -0.06810  -0.05336   0.01931   0.02928   0.05050
 Alpha virt. eigenvalues --    0.08172   0.10292   0.10806   0.11092   0.12454
 Alpha virt. eigenvalues --    0.12955   0.14183   0.14590   0.15400   0.15966

  Beta  occ. eigenvalues --  -24.86448 -24.86411 -24.86300 -24.86010 -24.85871
  Beta  occ. eigenvalues --  -24.85666 -24.85397 -24.85283 -24.84820 -19.35621
  Beta  occ. eigenvalues --  -19.34253 -19.30601 -19.30176 -14.63913 -14.59100
  Beta  occ. eigenvalues --  -14.58516 -10.61652 -10.57903 -10.57249 -10.54318
  Beta  occ. eigenvalues --  -10.52209 -10.52201 -10.51727 -10.39368 -10.36240
  Beta  occ. eigenvalues --  -10.33026 -10.30426 -10.29301 -10.27842  -1.45501
  Beta  occ. eigenvalues --   -1.44228  -1.42400  -1.38554  -1.35982  -1.35684
  Beta  occ. eigenvalues --   -1.34944  -1.34886  -1.34350  -1.30107  -1.24986
  Beta  occ. eigenvalues --   -1.23913  -1.22945  -1.16628  -1.14514  -1.12932
  Beta  occ. eigenvalues --   -0.96944  -0.95262  -0.93010  -0.90046  -0.87805
  Beta  occ. eigenvalues --   -0.86938  -0.84727  -0.83145  -0.81359  -0.80553
  Beta  occ. eigenvalues --   -0.78710  -0.76235  -0.75187  -0.73961  -0.73633
  Beta  occ. eigenvalues --   -0.72673  -0.72092  -0.71544  -0.71040  -0.70447
  Beta  occ. eigenvalues --   -0.68474  -0.67697  -0.67039  -0.66671  -0.63215
  Beta  occ. eigenvalues --   -0.63079  -0.61548  -0.61321  -0.60359  -0.60346
  Beta  occ. eigenvalues --   -0.60154  -0.59619  -0.59330  -0.59125  -0.58566
  Beta  occ. eigenvalues --   -0.58048  -0.57624  -0.57483  -0.57172  -0.56810
  Beta  occ. eigenvalues --   -0.56279  -0.55266  -0.54530  -0.54292  -0.53838
  Beta  occ. eigenvalues --   -0.53538  -0.53045  -0.52651  -0.52458  -0.51814
  Beta  occ. eigenvalues --   -0.51679  -0.51500  -0.51023  -0.50583  -0.49894
  Beta  occ. eigenvalues --   -0.48997  -0.47693  -0.47004  -0.46810  -0.46553
  Beta  occ. eigenvalues --   -0.45707  -0.45074  -0.44862  -0.43823  -0.43124
  Beta  occ. eigenvalues --   -0.42224  -0.40314
  Beta virt. eigenvalues --   -0.28308  -0.05866  -0.04393   0.02191   0.02947
  Beta virt. eigenvalues --    0.05957   0.08502   0.10403   0.10999   0.11373
  Beta virt. eigenvalues --    0.12511   0.13011   0.14237   0.14745   0.15492

 Mulliken charges and spin densities:
               1          2
     1  C   -0.332462   0.011762
     2  C   -0.208185   0.082150
     3  C   -0.098931   0.012029
     4  N   -0.459633   0.509821
     5  C    0.860674  -0.063642
     6  O   -0.452972   0.002445
     7  N   -0.543667   0.185969
     8  C   -0.080754   0.001630
     9  C   -0.197392   0.028220
    10  C   -0.329693   0.004873
    11  C    0.870431  -0.048490
    12  O   -0.440360   0.093304
    13  N   -0.631526  -0.013891
    14  C    0.760159  -0.000818
    15  F   -0.264165   0.002400
    16  F   -0.235910   0.000466
    17  C    0.439854  -0.000697
    18  F   -0.272329   0.000593
    19  O   -0.489510  -0.000077
    20  C    0.981257   0.000000
    21  F   -0.233125  -0.000002
    22  F   -0.233663  -0.000001
    23  F   -0.236617   0.000000
    24  C    0.821992  -0.000091
    25  F   -0.246294   0.000757
    26  F   -0.252517   0.000041
    27  F   -0.238700   0.000010
    28  C    0.891440  -0.125287
    29  O   -0.373189   0.268395
    30  H    0.139393   0.000322
    31  H    0.139011  -0.000441
    32  H    0.153032   0.010157
    33  H    0.160777  -0.002492
    34  H    0.159493  -0.000980
    35  H    0.215854   0.013356
    36  H    0.221411   0.016505
    37  H    0.188089   0.004173
    38  H    0.184883   0.005377
    39  H    0.138760   0.000261
    40  H    0.136075  -0.000996
    41  H    0.126435   0.000122
    42  H    0.134782   0.003003
    43  H    0.127796  -0.000239
 Sum of Mulliken charges =   1.00000   1.00000

 Dipole moment (field-independent basis, Debye):
    X=              5.9617    Y=              5.1067    Z=             -1.2126  Tot=              7.9430
 Quadrupole moment (field-independent basis, Debye-Ang):
   XX=           -146.0493   YY=           -126.7498   ZZ=           -151.7604
   XY=              0.4608   XZ=             -0.3981   YZ=             -1.8876

 Normal termination of Gaussian 09 at Sun Mar  3 18:07:38 2024.
