 Gaussian 09, Revision D.01,
 Gaussian 09:  ES64L-G09RevD.01 24-Apr-2013

 ----------------------------------------------------------------------
 #p CAM-B3LYP/6-31G(d,p) SCRF=(PCM,Solvent=Generic,Read) NoSymm out=wfn
 ----------------------------------------------------------------------

 ---------------
 Title A139312_0
 ---------------
 Symbolic Z-matrix:
 Charge =  0 Multiplicity = 1

                          Input orientation:
 ---------------------------------------------------------------------
 Center     Atomic      Atomic             Coordinates (Angstroms)
 Number     Number       Type             X           Y           Z
 ---------------------------------------------------------------------
      1          8           0        2.046443    0.862631    1.405390
      2          6           0        0.967012    0.301802    1.241311
      3          7           0        0.799154   -1.038725    1.479283
      4          6           0        1.973554   -1.805611    1.893019
      5          9           0        2.644572   -1.082555    2.835532
      6          9           0        1.545485   -2.900186    2.585167
      7          6           0        2.942146   -2.229227    0.755179
      8          9           0        2.323364   -3.147071   -0.042751
      9          8           0        3.199058   -1.109442   -0.099361
     10          6           0        4.254153   -1.329359   -0.998933
     11          9           0        5.423093   -1.218306   -0.349559
     12          9           0        4.197217   -0.387504   -1.958098
     13          9           0        4.153355   -2.537339   -1.573148
     14          6           0        4.139684   -2.878050    1.463479
     15          9           0        3.774782   -3.863757    2.311752
     16          9           0        4.853387   -1.976435    2.174166
     17          9           0        4.997201   -3.438949    0.577171
     18          6           0       -0.247980   -1.733322    0.927047
     19          8           0       -0.150936   -2.927015    0.662668
     20          7           0       -1.378485   -0.997038    0.638183
     21          6           0       -2.528924   -1.772096    0.166083
     22          9           0       -2.215390   -2.276320   -1.061530
     23          9           0       -2.628305   -2.872314    0.981216
     24          6           0       -3.977442   -1.185765    0.109064
     25          9           0       -4.848919   -2.225146   -0.132000
     26          8           0       -4.311744   -0.203048   -0.868725
     27          6           0       -4.057357   -0.612373   -2.189414
     28          9           0       -4.429687   -1.885913   -2.396002
     29          9           0       -4.754824    0.180843   -3.024828
     30          9           0       -2.748636   -0.479087   -2.468089
     31          6           0       -4.298948   -0.675603    1.513927
     32          9           0       -4.191558   -1.646302    2.450223
     33          9           0       -5.560351   -0.188822    1.595404
     34          9           0       -3.468986    0.320327    1.906947
     35          6           0       -1.250525    0.323411    0.315843
     36          8           0       -2.095808    0.896797   -0.359497
     37          7           0       -0.128841    0.973555    0.754430
     38          6           0        0.035537    2.393039    0.444137
     39          9           0       -1.177991    3.005500    0.450892
     40          9           0        0.671684    2.969516    1.514216
     41          6           0        0.837148    2.751965   -0.843495
     42          9           0        1.851437    1.826374   -0.985485
     43          8           0        1.561147    3.989157   -0.759557
     44          6           0        0.761764    5.139195   -0.857015
     45          9           0        1.510014    6.213425   -0.552558
     46          9           0        0.305392    5.268676   -2.111235
     47          9           0       -0.267672    5.071155   -0.004449
     48          6           0       -0.056257    2.583732   -2.071004
     49          9           0        0.597656    2.953553   -3.198713
     50          9           0       -0.402939    1.286248   -2.240820
     51          9           0       -1.186934    3.311778   -2.005466
 ---------------------------------------------------------------------

 SCF Done:  E(RCAM-B3LYP) =  -3881.80335377     A.U. after   13 cycles

 Alpha  occ. eigenvalues --  -24.84367 -24.84238 -24.84137 -24.83962 -24.83935
 Alpha  occ. eigenvalues --  -24.83915 -24.83836 -24.83801 -24.83732 -24.83728
 Alpha  occ. eigenvalues --  -24.83723 -24.83717 -24.83668 -24.83628 -24.83527
 Alpha  occ. eigenvalues --  -24.83511 -24.83358 -24.83322 -24.83299 -24.83294
 Alpha  occ. eigenvalues --  -24.83271 -24.83140 -24.83122 -24.83063 -24.83031
 Alpha  occ. eigenvalues --  -24.82821 -24.82768 -19.33598 -19.33498 -19.32678
 Alpha  occ. eigenvalues --  -19.26069 -19.25555 -19.25415 -14.54650 -14.54580
 Alpha  occ. eigenvalues --  -14.54309 -10.60045 -10.59923 -10.59374 -10.55943
 Alpha  occ. eigenvalues --  -10.55793 -10.55769 -10.54575 -10.54326 -10.54233
 Alpha  occ. eigenvalues --  -10.49902 -10.49689 -10.49556 -10.48140 -10.48065
 Alpha  occ. eigenvalues --  -10.47910  -1.43879  -1.43558  -1.42877  -1.42340
 Alpha  occ. eigenvalues --   -1.42281  -1.42088  -1.39823  -1.39630  -1.39568
 Alpha  occ. eigenvalues --   -1.36055  -1.35888  -1.35515  -1.34363  -1.33866
 Alpha  occ. eigenvalues --   -1.33865  -1.33614  -1.33400  -1.33228  -1.33164
 Alpha  occ. eigenvalues --   -1.33090  -1.32961  -1.32771  -1.32707  -1.32479
 Alpha  occ. eigenvalues --   -1.32236  -1.32140  -1.31983  -1.25476  -1.21111
 Alpha  occ. eigenvalues --   -1.20987  -1.20571  -1.19943  -1.19625  -1.11866
 Alpha  occ. eigenvalues --   -1.10074  -1.09860  -0.94787  -0.93886  -0.93542
 Alpha  occ. eigenvalues --   -0.87622  -0.85750  -0.85482  -0.82850  -0.82600
 Alpha  occ. eigenvalues --   -0.81301  -0.80954  -0.80401  -0.78433  -0.77158
 Alpha  occ. eigenvalues --   -0.76267  -0.75843  -0.74627  -0.73759  -0.73299
 Alpha  occ. eigenvalues --   -0.72481  -0.72339  -0.72117  -0.71649  -0.70815
 Alpha  occ. eigenvalues --   -0.70765  -0.70428  -0.70337  -0.69888  -0.69559
 Alpha  occ. eigenvalues --   -0.69173  -0.69112  -0.68779  -0.68359  -0.68033
 Alpha  occ. eigenvalues --   -0.67870  -0.67478  -0.66997  -0.66751  -0.66624
 Alpha  occ. eigenvalues --   -0.65665  -0.65497  -0.64988  -0.64428  -0.63526
 Alpha  occ. eigenvalues --   -0.60390  -0.60331  -0.59591  -0.58824  -0.58172
 Alpha  occ. eigenvalues --   -0.58057  -0.57680  -0.57615  -0.57473  -0.57341
 Alpha  occ. eigenvalues --   -0.57057  -0.56958  -0.56807  -0.56629  -0.56531
 Alpha  occ. eigenvalues --   -0.56378  -0.56201  -0.56109  -0.55887  -0.55783
 Alpha  occ. eigenvalues --   -0.55473  -0.55255  -0.55196  -0.55044  -0.54889
 Alpha  occ. eigenvalues --   -0.54729  -0.54328  -0.54189  -0.54027  -0.53707
 Alpha  occ. eigenvalues --   -0.53539  -0.53281  -0.53100  -0.52798  -0.52589
 Alpha  occ. eigenvalues --   -0.52490  -0.52438  -0.52304  -0.52004  -0.51914
 Alpha  occ. eigenvalues --   -0.51675  -0.51452  -0.51358  -0.51161  -0.51053
 Alpha  occ. eigenvalues --   -0.50877  -0.50775  -0.50610  -0.50498  -0.50309
 Alpha  occ. eigenvalues --   -0.50262  -0.50121  -0.49966  -0.49542  -0.49361
 Alpha  occ. eigenvalues --   -0.49292  -0.49069  -0.48882  -0.48778  -0.48236
 Alpha  occ. eigenvalues --   -0.46406  -0.46289  -0.45135  -0.44599  -0.44323
 Alpha  occ. eigenvalues --   -0.42267  -0.41810  -0.39903  -0.39669  -0.39201
 Alpha  occ. eigenvalues --   -0.37458
 Alpha virt. eigenvalues --   -0.01446  -0.00801   0.03619   0.04553   0.05270
 Alpha virt. eigenvalues --    0.06075   0.06719   0.08641   0.10131   0.12144
 Alpha virt. eigenvalues --    0.13682   0.14042   0.15755   0.16511   0.16968

 Mulliken charges:
               1
     1  O   -0.476303
     2  C    0.872394
     3  N   -0.661439
     4  C    0.761303
     5  F   -0.249776
     6  F   -0.254324
     7  C    0.440350
     8  F   -0.252175
     9  O   -0.510334
    10  C    0.998233
    11  F   -0.241568
    12  F   -0.237937
    13  F   -0.241773
    14  C    0.814746
    15  F   -0.242815
    16  F   -0.244799
    17  F   -0.257628
    18  C    0.832706
    19  O   -0.455292
    20  N   -0.637113
    21  C    0.781125
    22  F   -0.257012
    23  F   -0.267414
    24  C    0.413601
    25  F   -0.271175
    26  O   -0.490430
    27  C    1.000686
    28  F   -0.245181
    29  F   -0.239971
    30  F   -0.244781
    31  C    0.808810
    32  F   -0.241440
    33  F   -0.245528
    34  F   -0.242755
    35  C    0.853771
    36  O   -0.487581
    37  N   -0.654668
    38  C    0.763199
    39  F   -0.242839
    40  F   -0.266184
    41  C    0.437366
    42  F   -0.270435
    43  O   -0.493992
    44  C    0.978974
    45  F   -0.235016
    46  F   -0.239105
    47  F   -0.234556
    48  C    0.820522
    49  F   -0.255011
    50  F   -0.247057
    51  F   -0.242379
 Sum of Mulliken charges =   0.00000

 Dipole moment (field-independent basis, Debye):
    X=             -0.3863    Y=              0.7342    Z=              0.5798  Tot=              1.0122
 Quadrupole moment (field-independent basis, Debye-Ang):
   XX=           -275.9165   YY=           -274.8998   ZZ=           -265.0972
   XY=             -1.6290   XZ=             -5.7325   YZ=             -0.2571

 Normal termination of Gaussian 09 at Sun Mar  3 17:22:09 2024.
