 Gaussian 09, Revision D.01,
 Gaussian 09:  ES64L-G09RevD.01 24-Apr-2013

 ----------------------------------------------------------------------
 #p CAM-B3LYP/6-31G(d,p) opt SCRF=(PCM,Solvent=Generic,Read) NoSymm out
 =wfn
 ----------------------------------------------------------------------

 --------------
 Title mXD0_neu
 --------------
 Symbolic Z-matrix:
 Charge =  0 Multiplicity = 1

 SCF Done:  E(RCAM-B3LYP) =  -2025.03199916     A.U. after   13 cycles
 SCF Done:  E(RCAM-B3LYP) =  -2025.05261809     A.U. after   12 cycles
 SCF Done:  E(RCAM-B3LYP) =  -2025.05913298     A.U. after   12 cycles
 SCF Done:  E(RCAM-B3LYP) =  -2025.06050298     A.U. after   12 cycles
 SCF Done:  E(RCAM-B3LYP) =  -2025.06158658     A.U. after   12 cycles
 SCF Done:  E(RCAM-B3LYP) =  -2025.06076915     A.U. after   12 cycles
 SCF Done:  E(RCAM-B3LYP) =  -2025.06225567     A.U. after    9 cycles
 SCF Done:  E(RCAM-B3LYP) =  -2025.06157746     A.U. after   12 cycles
 SCF Done:  E(RCAM-B3LYP) =  -2025.06275776     A.U. after    8 cycles
 SCF Done:  E(RCAM-B3LYP) =  -2025.06323748     A.U. after   11 cycles
 SCF Done:  E(RCAM-B3LYP) =  -2025.06704949     A.U. after   10 cycles
 SCF Done:  E(RCAM-B3LYP) =  -2025.06705180     A.U. after    9 cycles
 SCF Done:  E(RCAM-B3LYP) =  -2025.06705302     A.U. after    8 cycles
 SCF Done:  E(RCAM-B3LYP) =  -2025.06705339     A.U. after    7 cycles
 SCF Done:  E(RCAM-B3LYP) =  -2025.06705351     A.U. after    7 cycles
 SCF Done:  E(RCAM-B3LYP) =  -2025.06705357     A.U. after    7 cycles
 SCF Done:  E(RCAM-B3LYP) =  -2025.06705361     A.U. after    7 cycles
 SCF Done:  E(RCAM-B3LYP) =  -2025.06705365     A.U. after    7 cycles
 SCF Done:  E(RCAM-B3LYP) =  -2025.06705367     A.U. after    7 cycles
 SCF Done:  E(RCAM-B3LYP) =  -2025.06705367     A.U. after    6 cycles
 Optimization completed.
    -- Stationary point found.

                          Input orientation:
 ---------------------------------------------------------------------
 Center     Atomic      Atomic             Coordinates (Angstroms)
 Number     Number       Type             X           Y           Z
 ---------------------------------------------------------------------
      1          9           0       -5.321120   -3.283183    0.571580
      2          6           0       -3.999446   -3.393386    0.383294
      3          9           0       -3.681715   -4.684932    0.409894
      4          6           0       -3.233505   -2.583853    1.446994
      5          9           0       -2.047611   -3.173758    1.668000
      6          9           0       -3.910975   -2.513619    2.598502
      7          6           0       -2.978813   -1.219584    0.762337
      8          9           0       -1.722818   -0.786378    1.066595
      9          6           0       -3.969916   -0.129434    1.211685
     10          9           0       -3.739439    0.112545    2.522453
     11          6           0       -3.787794    1.212264    0.478856
     12          8           0       -4.932202    1.678968    0.005247
     13          8           0       -2.715389    1.750081    0.412609
     14          9           0       -5.219395   -0.611522    1.068777
     15          6           0       -3.111092   -1.572833   -0.747318
     16          9           0       -3.976774   -0.716815   -1.353788
     17          6           0       -1.782892   -1.553930   -1.531233
     18          9           0       -0.939951   -2.409090   -0.888648
     19          6           0       -1.155794   -0.156584   -1.716264
     20          7           0        0.039293    0.005908   -1.132809
     21          6           0        0.729305    1.287877   -1.150873
     22          6           0        2.228031    1.115781   -1.165095
     23          6           0        3.018136    1.767762   -0.223220
     24          6           0        4.407341    1.645121   -0.228580
     25          6           0        5.240910    2.403159    0.781457
     26          7           0        6.469375    1.692848    1.119138
     27          6           0        5.004456    0.834481   -1.190702
     28          6           0        4.223887    0.169916   -2.130729
     29          6           0        2.842840    0.310411   -2.124098
     30          8           0       -1.753937    0.666981   -2.384288
     31          9           0       -2.041392   -2.059279   -2.752918
     32          8           0       -3.631148   -2.866133   -0.834621
     33          1           0       -4.745695    2.524446   -0.437570
     34          1           0        0.397209   -0.734004   -0.547327
     35          1           0        0.420391    1.884440   -0.285960
     36          1           0        0.380124    1.813589   -2.042967
     37          1           0        2.540781    2.384161    0.535128
     38          1           0        5.530461    3.366923    0.344883
     39          1           0        4.606077    2.641768    1.649463
     40          1           0        6.251190    0.851844    1.645334
     41          1           0        7.052314    2.270828    1.715419
     42          1           0        6.083018    0.725863   -1.184476
     43          1           0        4.698006   -0.460359   -2.876520
     44          1           0        2.235671   -0.209291   -2.859160
 ---------------------------------------------------------------------

 Alpha  occ. eigenvalues --  -24.82939 -24.82852 -24.82561 -24.82522 -24.82502
 Alpha  occ. eigenvalues --  -24.82158 -24.82132 -24.82073 -24.82022 -24.81032
 Alpha  occ. eigenvalues --  -19.31448 -19.30366 -19.24954 -19.20978 -14.45336
 Alpha  occ. eigenvalues --  -14.38892 -10.51996 -10.48163 -10.48090 -10.46520
 Alpha  occ. eigenvalues --  -10.46488 -10.43674 -10.42236 -10.38903 -10.30492
 Alpha  occ. eigenvalues --  -10.28739 -10.27391 -10.26805 -10.26283 -10.26257
 Alpha  occ. eigenvalues --  -10.26178 -10.25600  -1.40640  -1.38512  -1.37852
 Alpha  occ. eigenvalues --   -1.37502  -1.35025  -1.34565  -1.32917  -1.31883
 Alpha  occ. eigenvalues --   -1.31552  -1.30863  -1.22731  -1.21757  -1.14151
 Alpha  occ. eigenvalues --   -1.13678  -1.02892  -0.97167  -0.94975  -0.93880
 Alpha  occ. eigenvalues --   -0.90245  -0.86763  -0.85957  -0.83687  -0.82337
 Alpha  occ. eigenvalues --   -0.78917  -0.77037  -0.75543  -0.74243  -0.73837
 Alpha  occ. eigenvalues --   -0.70838  -0.70009  -0.69348  -0.69034  -0.68029
 Alpha  occ. eigenvalues --   -0.67698  -0.67153  -0.66806  -0.66413  -0.66032
 Alpha  occ. eigenvalues --   -0.64669  -0.64003  -0.63772  -0.63400  -0.61695
 Alpha  occ. eigenvalues --   -0.58728  -0.58424  -0.57398  -0.56559  -0.56230
 Alpha  occ. eigenvalues --   -0.55944  -0.55605  -0.55514  -0.54925  -0.54623
 Alpha  occ. eigenvalues --   -0.54024  -0.53840  -0.53424  -0.53176  -0.52951
 Alpha  occ. eigenvalues --   -0.52743  -0.52351  -0.52043  -0.51640  -0.51499
 Alpha  occ. eigenvalues --   -0.50877  -0.50402  -0.49978  -0.49772  -0.49504
 Alpha  occ. eigenvalues --   -0.49378  -0.48848  -0.48333  -0.48080  -0.47599
 Alpha  occ. eigenvalues --   -0.47258  -0.46393  -0.45804  -0.45505  -0.44680
 Alpha  occ. eigenvalues --   -0.42856  -0.42150  -0.41862  -0.41313  -0.40328
 Alpha  occ. eigenvalues --   -0.39840  -0.37247  -0.34214  -0.33521  -0.31028
 Alpha  occ. eigenvalues --   -0.30332  -0.29053
 Alpha virt. eigenvalues --    0.01941   0.03773   0.04099   0.04733   0.05137
 Alpha virt. eigenvalues --    0.10990   0.11599   0.12371   0.13627   0.14863
 Alpha virt. eigenvalues --    0.15499   0.15960   0.17486   0.18047   0.18703

 Mulliken charges:
               1
     1  F   -0.243383
     2  C    0.743644
     3  F   -0.239838
     4  C    0.532822
     5  F   -0.259058
     6  F   -0.249763
     7  C    0.129918
     8  F   -0.289703
     9  C    0.614825
    10  F   -0.273692
    11  C    0.539802
    12  O   -0.461648
    13  O   -0.440029
    14  F   -0.266950
    15  C    0.496122
    16  F   -0.266111
    17  C    0.576864
    18  F   -0.289556
    19  C    0.545368
    20  N   -0.533058
    21  C   -0.083182
    22  C    0.067225
    23  C   -0.175466
    24  C    0.085843
    25  C   -0.095590
    26  N   -0.621009
    27  C   -0.112294
    28  C   -0.097775
    29  C   -0.118276
    30  O   -0.523943
    31  F   -0.267283
    32  O   -0.485843
    33  H    0.360595
    34  H    0.290355
    35  H    0.138436
    36  H    0.160487
    37  H    0.087169
    38  H    0.127479
    39  H    0.088620
    40  H    0.248985
    41  H    0.250836
    42  H    0.111739
    43  H    0.099113
    44  H    0.097198
 Sum of Mulliken charges =   0.00000

 Dipole moment (field-independent basis, Debye):
    X=              2.4546    Y=              2.3081    Z=              2.7775  Tot=              4.3666
 Quadrupole moment (field-independent basis, Debye-Ang):
   XX=           -169.9706   YY=           -169.3130   ZZ=           -178.4131
   XY=             -7.0812   XZ=              6.0522   YZ=              3.8466

 Normal termination of Gaussian 09 at Tue Feb  4 09:20:06 2025.
