 Gaussian 09, Revision D.01,
 Gaussian 09:  ES64L-G09RevD.01 24-Apr-2013

 ----------------------------------------------------------------------
 #p CAM-B3LYP/6-31G(d,p) SCRF=(PCM,Solvent=Generic,Read) NoSymm out=wfn
 ----------------------------------------------------------------------

 -------------------
 Title A154147350_p1
 -------------------
 Symbolic Z-matrix:
 Charge =  1 Multiplicity = 2

                          Input orientation:
 ---------------------------------------------------------------------
 Center     Atomic      Atomic             Coordinates (Angstroms)
 Number     Number       Type             X           Y           Z
 ---------------------------------------------------------------------
      1          8           0       -2.228769    2.321557    0.086799
      2          6           0       -1.186517    1.670873    0.061264
      3          7           0       -0.010674    2.180032    0.570496
      4          6           0        0.032556    3.606865    0.917569
      5          6           0       -0.028788    4.530621   -0.295644
      6         35           0        1.534009    4.298676   -1.436848
      7          6           0        1.093923    1.393857    0.826005
      8          8           0        2.152670    1.872149    1.223820
      9          7           0        0.930338    0.045217    0.621987
     10          6           0        2.040131   -0.825363    0.989268
     11          9           0        1.594581   -2.100077    1.202281
     12          9           0        2.444406   -0.447850    2.248370
     13          6           0        3.295921   -0.877250    0.075162
     14          9           0        3.787561    0.382932   -0.101720
     15          8           0        4.312223   -1.605563    0.786608
     16          6           0        5.457846   -1.860892    0.019830
     17          9           0        5.803823   -0.797439   -0.721017
     18          9           0        6.472496   -2.163071    0.850658
     19          9           0        5.224380   -2.919913   -0.773501
     20          6           0        2.875168   -1.447402   -1.280583
     21          9           0        2.418900   -2.711837   -1.187056
     22          9           0        3.901875   -1.462300   -2.162762
     23          9           0        1.909100   -0.692024   -1.856246
     24          6           0       -0.122918   -0.469747   -0.092486
     25          8           0       -0.170850   -1.659867   -0.392230
     26          7           0       -1.111318    0.407403   -0.461791
     27          6           0       -2.308185   -0.126501   -1.102004
     28          9           0       -1.940042   -1.073082   -2.012208
     29          9           0       -2.857328    0.853727   -1.874911
     30          6           0       -3.365656   -0.709113   -0.130424
     31          9           0       -3.833229    0.290937    0.673266
     32          8           0       -2.733681   -1.639144    0.757691
     33          6           0       -3.646836   -2.397418    1.506831
     34          9           0       -4.623039   -1.622493    2.003214
     35          9           0       -2.985732   -2.968975    2.529836
     36          9           0       -4.165902   -3.362149    0.732087
     37          6           0       -4.496298   -1.237028   -1.024862
     38          9           0       -5.557574   -1.650293   -0.290391
     39          9           0       -4.101094   -2.297021   -1.764356
     40          9           0       -4.971883   -0.303518   -1.877255
     41          1           0       -0.832026    3.816518    1.559524
     42          1           0        0.924376    3.831392    1.512949
     43          1           0       -0.899141    4.344820   -0.929720
     44          1           0       -0.028804    5.579751    0.012502
 ---------------------------------------------------------------------

 SCF Done:  E(UCAM-B3LYP) =  -5405.99345512     A.U. after   32 cycles

 Alpha  occ. eigenvalues -- -483.15983 -62.11729 -56.63965 -56.63709 -56.63344
 Alpha  occ. eigenvalues --  -24.86633 -24.85741 -24.85385 -24.85369 -24.85324
 Alpha  occ. eigenvalues --  -24.85263 -24.85211 -24.85126 -24.85046 -24.85030
 Alpha  occ. eigenvalues --  -24.85019 -24.85016 -24.84915 -24.84875 -24.84658
 Alpha  occ. eigenvalues --  -24.84658 -24.84564 -24.84314 -19.35038 -19.34780
 Alpha  occ. eigenvalues --  -19.29572 -19.29167 -19.27258 -14.57074 -14.57006
 Alpha  occ. eigenvalues --  -14.56720 -10.61226 -10.61092 -10.57850 -10.57169
 Alpha  occ. eigenvalues --  -10.56219 -10.56147 -10.51437 -10.51192 -10.50823
 Alpha  occ. eigenvalues --  -10.50572 -10.50135 -10.43018 -10.40605  -8.83958
 Alpha  occ. eigenvalues --   -6.79541  -6.78844  -6.77615  -2.91403  -2.91343
 Alpha  occ. eigenvalues --   -2.90370  -2.89918  -2.89711  -1.44997  -1.44833
 Alpha  occ. eigenvalues --   -1.43963  -1.43455  -1.41661  -1.41034  -1.38049
 Alpha  occ. eigenvalues --   -1.37801  -1.35618  -1.35109  -1.35029  -1.34952
 Alpha  occ. eigenvalues --   -1.34819  -1.34694  -1.34224  -1.33867  -1.33727
 Alpha  occ. eigenvalues --   -1.33450  -1.27741  -1.22925  -1.22617  -1.22221
 Alpha  occ. eigenvalues --   -1.21915  -1.14361  -1.12566  -1.12167  -1.05037
 Alpha  occ. eigenvalues --   -0.96582  -0.95619  -0.93989  -0.88734  -0.87642
 Alpha  occ. eigenvalues --   -0.85097  -0.84739  -0.83981  -0.81782  -0.80267
 Alpha  occ. eigenvalues --   -0.79287  -0.78241  -0.77966  -0.75741  -0.74873
 Alpha  occ. eigenvalues --   -0.74339  -0.74007  -0.72731  -0.72430  -0.71938
 Alpha  occ. eigenvalues --   -0.71376  -0.71038  -0.70666  -0.70179  -0.69971
 Alpha  occ. eigenvalues --   -0.69392  -0.69197  -0.68453  -0.68180  -0.67585
 Alpha  occ. eigenvalues --   -0.66907  -0.66536  -0.65566  -0.63160  -0.62342
 Alpha  occ. eigenvalues --   -0.61869  -0.61711  -0.60595  -0.59707  -0.59266
 Alpha  occ. eigenvalues --   -0.59052  -0.58968  -0.58751  -0.58571  -0.58355
 Alpha  occ. eigenvalues --   -0.58205  -0.58013  -0.57947  -0.57789  -0.57407
 Alpha  occ. eigenvalues --   -0.57175  -0.57025  -0.56796  -0.56383  -0.56196
 Alpha  occ. eigenvalues --   -0.56010  -0.55577  -0.55229  -0.55204  -0.54677
 Alpha  occ. eigenvalues --   -0.54391  -0.54142  -0.53942  -0.53846  -0.53415
 Alpha  occ. eigenvalues --   -0.53123  -0.52976  -0.52668  -0.52604  -0.52369
 Alpha  occ. eigenvalues --   -0.52147  -0.51997  -0.51925  -0.51586  -0.51463
 Alpha  occ. eigenvalues --   -0.50954  -0.50861  -0.50764  -0.50563  -0.48717
 Alpha  occ. eigenvalues --   -0.48155  -0.47936  -0.46688  -0.46505  -0.45028
 Alpha  occ. eigenvalues --   -0.43547  -0.43401  -0.42866  -0.41842  -0.39965
 Alpha virt. eigenvalues --   -0.06217  -0.04375  -0.03011   0.03001   0.03509
 Alpha virt. eigenvalues --    0.04268   0.05549   0.07879   0.08388   0.10316
 Alpha virt. eigenvalues --    0.10873   0.12063   0.12734   0.14157   0.14608

  Beta  occ. eigenvalues -- -483.15764 -62.11599 -56.63612 -56.63485 -56.63251
  Beta  occ. eigenvalues --  -24.86633 -24.85741 -24.85385 -24.85369 -24.85324
  Beta  occ. eigenvalues --  -24.85263 -24.85211 -24.85126 -24.85046 -24.85030
  Beta  occ. eigenvalues --  -24.85019 -24.85016 -24.84915 -24.84875 -24.84658
  Beta  occ. eigenvalues --  -24.84658 -24.84560 -24.84314 -19.35038 -19.34780
  Beta  occ. eigenvalues --  -19.29408 -19.29099 -19.27259 -14.57009 -14.56947
  Beta  occ. eigenvalues --  -14.56722 -10.61226 -10.61092 -10.57850 -10.57169
  Beta  occ. eigenvalues --  -10.56219 -10.56147 -10.51437 -10.51192 -10.50857
  Beta  occ. eigenvalues --  -10.50596 -10.50135 -10.42980 -10.40562  -8.83608
  Beta  occ. eigenvalues --   -6.78675  -6.78603  -6.77448  -2.90825  -2.90805
  Beta  occ. eigenvalues --   -2.89845  -2.89800  -2.89497  -1.44997  -1.44833
  Beta  occ. eigenvalues --   -1.43963  -1.43455  -1.41661  -1.41031  -1.38049
  Beta  occ. eigenvalues --   -1.37800  -1.35618  -1.35109  -1.35029  -1.34952
  Beta  occ. eigenvalues --   -1.34819  -1.34694  -1.34224  -1.33867  -1.33727
  Beta  occ. eigenvalues --   -1.33444  -1.27657  -1.22782  -1.22591  -1.22214
  Beta  occ. eigenvalues --   -1.21853  -1.14196  -1.12513  -1.11991  -1.02650
  Beta  occ. eigenvalues --   -0.96457  -0.95617  -0.92912  -0.88664  -0.87618
  Beta  occ. eigenvalues --   -0.84864  -0.84552  -0.83933  -0.81766  -0.80089
  Beta  occ. eigenvalues --   -0.79236  -0.78048  -0.77955  -0.75699  -0.74870
  Beta  occ. eigenvalues --   -0.74329  -0.74004  -0.72711  -0.72422  -0.71924
  Beta  occ. eigenvalues --   -0.71375  -0.71029  -0.70659  -0.70175  -0.69954
  Beta  occ. eigenvalues --   -0.69386  -0.69161  -0.68448  -0.68172  -0.67496
  Beta  occ. eigenvalues --   -0.66787  -0.66516  -0.65075  -0.62392  -0.62338
  Beta  occ. eigenvalues --   -0.61853  -0.61530  -0.60391  -0.59673  -0.59220
  Beta  occ. eigenvalues --   -0.59026  -0.58947  -0.58531  -0.58479  -0.58319
  Beta  occ. eigenvalues --   -0.58013  -0.57971  -0.57917  -0.57720  -0.57361
  Beta  occ. eigenvalues --   -0.57010  -0.56837  -0.56790  -0.56320  -0.55975
  Beta  occ. eigenvalues --   -0.55830  -0.55545  -0.55209  -0.54950  -0.54602
  Beta  occ. eigenvalues --   -0.54329  -0.54121  -0.53911  -0.53813  -0.53262
  Beta  occ. eigenvalues --   -0.53057  -0.52888  -0.52612  -0.52379  -0.52309
  Beta  occ. eigenvalues --   -0.52085  -0.51890  -0.51582  -0.51467  -0.50951
  Beta  occ. eigenvalues --   -0.50857  -0.50765  -0.50562  -0.48201  -0.47953
  Beta  occ. eigenvalues --   -0.47505  -0.46667  -0.46497  -0.44653  -0.43387
  Beta  occ. eigenvalues --   -0.43231  -0.41945  -0.41749  -0.39791
  Beta virt. eigenvalues --   -0.29170  -0.05486  -0.04214  -0.02893   0.03003
  Beta virt. eigenvalues --    0.03552   0.04285   0.05584   0.07902   0.08566
  Beta virt. eigenvalues --    0.10437   0.10884   0.12214   0.12752   0.14310

 Mulliken charges and spin densities:
               1          2
     1  O   -0.473654   0.026358
     2  C    0.847059  -0.014009
     3  N   -0.579855   0.060411
     4  C   -0.096475   0.017168
     5  C   -0.261978  -0.002135
     6  Br   0.511599   0.824794
     7  C    0.865011  -0.021410
     8  O   -0.468283   0.061212
     9  N   -0.653759  -0.000574
    10  C    0.749820  -0.000220
    11  F   -0.238020   0.000079
    12  F   -0.261553   0.000847
    13  C    0.437405  -0.000101
    14  F   -0.256686  -0.000002
    15  O   -0.508405  -0.000001
    16  C    0.999279  -0.000003
    17  F   -0.243423   0.000000
    18  F   -0.235717  -0.000001
    19  F   -0.243062   0.000000
    20  C    0.817105   0.000000
    21  F   -0.229916  -0.000002
    22  F   -0.249561  -0.000002
    23  F   -0.254348  -0.000001
    24  C    0.873643  -0.000002
    25  O   -0.473348  -0.000471
    26  N   -0.657270  -0.000726
    27  C    0.760579   0.000022
    28  F   -0.244463   0.000030
    29  F   -0.254614   0.000017
    30  C    0.438080   0.000028
    31  F   -0.254881   0.000057
    32  O   -0.510189   0.000006
    33  C    1.000176  -0.000001
    34  F   -0.241634   0.000001
    35  F   -0.236582   0.000000
    36  F   -0.239562   0.000000
    37  C    0.818093  -0.000011
    38  F   -0.255629   0.000005
    39  F   -0.242710  -0.000001
    40  F   -0.243235   0.000002
    41  H    0.240072   0.011096
    42  H    0.227029   0.000925
    43  H    0.264864   0.034560
    44  H    0.258993   0.002056
 Sum of Mulliken charges =   1.00000   1.00000

 Dipole moment (field-independent basis, Debye):
    X=              3.1118    Y=             20.8347    Z=             -2.5918  Tot=             21.2246
 Quadrupole moment (field-independent basis, Debye-Ang):
   XX=           -220.2427   YY=           -134.6346   ZZ=           -212.0734
   XY=             14.5583   XZ=            -10.4780   YZ=            -13.9858

 Normal termination of Gaussian 09 at Sun Mar  3 18:19:04 2024.
