 Gaussian 09, Revision D.01,
 Gaussian 09:  ES64L-G09RevD.01 24-Apr-2013

 ----------------------------------------------------------------------
 #p CAM-B3LYP/6-31G(d,p) SCRF=(PCM,Solvent=Generic,Read) NoSymm out=wfn
 ----------------------------------------------------------------------

 ------------------
 Title A154147350_0
 ------------------
 Symbolic Z-matrix:
 Charge =  0 Multiplicity = 1

                          Input orientation:
 ---------------------------------------------------------------------
 Center     Atomic      Atomic             Coordinates (Angstroms)
 Number     Number       Type             X           Y           Z
 ---------------------------------------------------------------------
      1          8           0       -2.228769    2.321557    0.086799
      2          6           0       -1.186517    1.670873    0.061264
      3          7           0       -0.010674    2.180032    0.570496
      4          6           0        0.032556    3.606865    0.917569
      5          6           0       -0.028788    4.530621   -0.295644
      6         35           0        1.534009    4.298676   -1.436848
      7          6           0        1.093923    1.393857    0.826005
      8          8           0        2.152670    1.872149    1.223820
      9          7           0        0.930338    0.045217    0.621987
     10          6           0        2.040131   -0.825363    0.989268
     11          9           0        1.594581   -2.100077    1.202281
     12          9           0        2.444406   -0.447850    2.248370
     13          6           0        3.295921   -0.877250    0.075162
     14          9           0        3.787561    0.382932   -0.101720
     15          8           0        4.312223   -1.605563    0.786608
     16          6           0        5.457846   -1.860892    0.019830
     17          9           0        5.803823   -0.797439   -0.721017
     18          9           0        6.472496   -2.163071    0.850658
     19          9           0        5.224380   -2.919913   -0.773501
     20          6           0        2.875168   -1.447402   -1.280583
     21          9           0        2.418900   -2.711837   -1.187056
     22          9           0        3.901875   -1.462300   -2.162762
     23          9           0        1.909100   -0.692024   -1.856246
     24          6           0       -0.122918   -0.469747   -0.092486
     25          8           0       -0.170850   -1.659867   -0.392230
     26          7           0       -1.111318    0.407403   -0.461791
     27          6           0       -2.308185   -0.126501   -1.102004
     28          9           0       -1.940042   -1.073082   -2.012208
     29          9           0       -2.857328    0.853727   -1.874911
     30          6           0       -3.365656   -0.709113   -0.130424
     31          9           0       -3.833229    0.290937    0.673266
     32          8           0       -2.733681   -1.639144    0.757691
     33          6           0       -3.646836   -2.397418    1.506831
     34          9           0       -4.623039   -1.622493    2.003214
     35          9           0       -2.985732   -2.968975    2.529836
     36          9           0       -4.165902   -3.362149    0.732087
     37          6           0       -4.496298   -1.237028   -1.024862
     38          9           0       -5.557574   -1.650293   -0.290391
     39          9           0       -4.101094   -2.297021   -1.764356
     40          9           0       -4.971883   -0.303518   -1.877255
     41          1           0       -0.832026    3.816518    1.559524
     42          1           0        0.924376    3.831392    1.512949
     43          1           0       -0.899141    4.344820   -0.929720
     44          1           0       -0.028804    5.579751    0.012502
 ---------------------------------------------------------------------

 SCF Done:  E(RCAM-B3LYP) =  -5406.31053077     A.U. after   13 cycles

 Alpha  occ. eigenvalues -- -482.97226 -61.93159 -56.45290 -56.44918 -56.44906
 Alpha  occ. eigenvalues --  -24.84385 -24.83878 -24.83720 -24.83656 -24.83648
 Alpha  occ. eigenvalues --  -24.83547 -24.83532 -24.83467 -24.83317 -24.83230
 Alpha  occ. eigenvalues --  -24.83220 -24.83158 -24.83126 -24.83120 -24.82927
 Alpha  occ. eigenvalues --  -24.82918 -24.82880 -24.82129 -19.33370 -19.32951
 Alpha  occ. eigenvalues --  -19.24661 -19.24313 -19.24190 -14.53566 -14.53418
 Alpha  occ. eigenvalues --  -14.51182 -10.59833 -10.59525 -10.55826 -10.55633
 Alpha  occ. eigenvalues --  -10.53792 -10.53630 -10.49298 -10.49221 -10.47146
 Alpha  occ. eigenvalues --  -10.46294 -10.46122 -10.33568 -10.33106  -8.65368
 Alpha  occ. eigenvalues --   -6.60907  -6.59638  -6.59618  -2.72666  -2.72313
 Alpha  occ. eigenvalues --   -2.72295  -2.71287  -2.71286  -1.43476  -1.43279
 Alpha  occ. eigenvalues --   -1.42145  -1.41957  -1.39415  -1.38706  -1.35947
 Alpha  occ. eigenvalues --   -1.35731  -1.33793  -1.33593  -1.33524  -1.33450
 Alpha  occ. eigenvalues --   -1.33138  -1.33005  -1.32540  -1.32340  -1.31894
 Alpha  occ. eigenvalues --   -1.31133  -1.23720  -1.20891  -1.20407  -1.18439
 Alpha  occ. eigenvalues --   -1.18173  -1.10409  -1.08987  -1.07189  -0.94266
 Alpha  occ. eigenvalues --   -0.93521  -0.91635  -0.86423  -0.84356  -0.84215
 Alpha  occ. eigenvalues --   -0.82766  -0.82281  -0.79199  -0.79177  -0.77124
 Alpha  occ. eigenvalues --   -0.76063  -0.75100  -0.74058  -0.73198  -0.72676
 Alpha  occ. eigenvalues --   -0.72117  -0.71583  -0.70725  -0.70483  -0.70002
 Alpha  occ. eigenvalues --   -0.69685  -0.69010  -0.68803  -0.68455  -0.67725
 Alpha  occ. eigenvalues --   -0.67484  -0.66961  -0.66543  -0.65747  -0.65003
 Alpha  occ. eigenvalues --   -0.64167  -0.62705  -0.60358  -0.60242  -0.59667
 Alpha  occ. eigenvalues --   -0.57939  -0.57745  -0.57435  -0.57268  -0.57134
 Alpha  occ. eigenvalues --   -0.56674  -0.56402  -0.56332  -0.56035  -0.55825
 Alpha  occ. eigenvalues --   -0.55664  -0.55534  -0.55147  -0.54808  -0.54662
 Alpha  occ. eigenvalues --   -0.54604  -0.54122  -0.54048  -0.53729  -0.53403
 Alpha  occ. eigenvalues --   -0.53253  -0.52972  -0.52708  -0.52575  -0.52070
 Alpha  occ. eigenvalues --   -0.51991  -0.51886  -0.51746  -0.51104  -0.50880
 Alpha  occ. eigenvalues --   -0.50852  -0.50630  -0.50500  -0.50375  -0.50125
 Alpha  occ. eigenvalues --   -0.49762  -0.49407  -0.49145  -0.49101  -0.48978
 Alpha  occ. eigenvalues --   -0.48655  -0.47824  -0.46119  -0.46022  -0.44903
 Alpha  occ. eigenvalues --   -0.44564  -0.43204  -0.40782  -0.39771  -0.39535
 Alpha  occ. eigenvalues --   -0.38702  -0.37566  -0.36266  -0.34593  -0.34197
 Alpha virt. eigenvalues --   -0.00123   0.00461   0.05087   0.05338   0.06111
 Alpha virt. eigenvalues --    0.06910   0.08320   0.10804   0.13443   0.13953
 Alpha virt. eigenvalues --    0.14778   0.15969   0.17195   0.17461   0.18491

 Mulliken charges:
               1
     1  O   -0.498605
     2  C    0.838241
     3  N   -0.582329
     4  C   -0.063384
     5  C   -0.213506
     6  Br  -0.157451
     7  C    0.852598
     8  O   -0.494721
     9  N   -0.652832
    10  C    0.746974
    11  F   -0.245221
    12  F   -0.266024
    13  C    0.437457
    14  F   -0.252228
    15  O   -0.512555
    16  C    0.996812
    17  F   -0.242457
    18  F   -0.238597
    19  F   -0.245455
    20  C    0.815965
    21  F   -0.234352
    22  F   -0.252482
    23  F   -0.250041
    24  C    0.866929
    25  O   -0.493616
    26  N   -0.653984
    27  C    0.760460
    28  F   -0.249602
    29  F   -0.255727
    30  C    0.436780
    31  F   -0.255320
    32  O   -0.508960
    33  C    0.997988
    34  F   -0.242806
    35  F   -0.238185
    36  F   -0.241807
    37  C    0.814907
    38  F   -0.258700
    39  F   -0.244737
    40  F   -0.243657
    41  H    0.173527
    42  H    0.186218
    43  H    0.182592
    44  H    0.181898
 Sum of Mulliken charges =   0.00000

 Dipole moment (field-independent basis, Debye):
    X=             -1.5718    Y=              2.8495    Z=              1.5060  Tot=              3.5859
 Quadrupole moment (field-independent basis, Debye-Ang):
   XX=           -237.0423   YY=           -219.1580   ZZ=           -225.4720
   XY=             -5.3097   XZ=             -4.6576   YZ=              5.0942

 Normal termination of Gaussian 09 at Sun Mar  3 18:17:07 2024.
