 Gaussian 09, Revision D.01,
 Gaussian 09:  ES64L-G09RevD.01 24-Apr-2013

 ----------------------------------------------------------------------
 #p CAM-B3LYP/6-31G(d,p) SCRF=(PCM,Solvent=Generic,Read) NoSymm out=wfn
 ----------------------------------------------------------------------

 -------------------
 Title A1013755062_0
 -------------------
 Symbolic Z-matrix:
 Charge =  0 Multiplicity = 1

                          Input orientation:
 ---------------------------------------------------------------------
 Center     Atomic      Atomic             Coordinates (Angstroms)
 Number     Number       Type             X           Y           Z
 ---------------------------------------------------------------------
      1          6           0       -3.743088   -0.452419   -0.822903
      2          7           0       -2.461147   -0.259672   -0.169974
      3          6           0       -1.787096   -1.446243    0.290320
      4          7           0       -0.409524   -1.183483    0.626261
      5          6           0        0.454561   -1.144411   -0.556549
      6          9           0        0.388328   -2.409612   -1.067700
      7          9           0       -0.089290   -0.347694   -1.515844
      8          6           0        1.953677   -0.760108   -0.385639
      9          9           0        2.481840   -1.508042    0.632077
     10          8           0        2.052438    0.611340    0.025544
     11          6           0        3.366022    1.098690    0.042048
     12          9           0        3.728518    1.446050   -1.202723
     13          9           0        3.396721    2.196395    0.822080
     14          9           0        4.219926    0.193040    0.542865
     15          6           0        2.639158   -1.111153   -1.718163
     16          9           0        2.178739   -0.355030   -2.739956
     17          9           0        2.492569   -2.407129   -2.071837
     18          9           0        3.978188   -0.900646   -1.654952
     19          6           0       -0.352739   -0.075295    1.535379
     20          7           0       -0.908905    1.094547    0.929771
     21          6           0       -0.554042    2.373278    1.518498
     22          6           0       -2.120381    1.007263    0.263305
     23          8           0       -2.822060    1.993563    0.047071
     24          1           0       -4.460867   -0.821261   -0.084104
     25          1           0       -3.631647   -1.186591   -1.626207
     26          1           0       -4.123341    0.478310   -1.252576
     27          1           0       -1.877440   -2.233389   -0.467917
     28          1           0       -2.328324   -1.808864    1.173946
     29          1           0       -0.934371   -0.291878    2.442236
     30          1           0        0.664883    0.114928    1.888765
     31          1           0        0.531685    2.436549    1.632302
     32          1           0       -1.035667    2.458375    2.497358
     33          1           0       -0.887328    3.200594    0.885136
 ---------------------------------------------------------------------

 SCF Done:  E(RCAM-B3LYP) =  -1561.76600120     A.U. after   13 cycles

 Alpha  occ. eigenvalues --  -24.83786 -24.83669 -24.83396 -24.83043 -24.82863
 Alpha  occ. eigenvalues --  -24.82742 -24.82560 -24.81011 -24.80691 -19.33074
 Alpha  occ. eigenvalues --  -19.17641 -14.45040 -14.42836 -14.42593 -10.59623
 Alpha  occ. eigenvalues --  -10.55226 -10.49786 -10.48580 -10.38322 -10.33851
 Alpha  occ. eigenvalues --  -10.33602 -10.28526 -10.28374  -1.43268  -1.41487
 Alpha  occ. eigenvalues --   -1.37174  -1.35282  -1.33583  -1.33325  -1.32484
 Alpha  occ. eigenvalues --   -1.31904  -1.30010  -1.20599  -1.13263  -1.07701
 Alpha  occ. eigenvalues --   -1.01172  -0.99325  -0.92433  -0.83039  -0.81976
 Alpha  occ. eigenvalues --   -0.81316  -0.80387  -0.76699  -0.73704  -0.73327
 Alpha  occ. eigenvalues --   -0.72696  -0.70591  -0.70352  -0.69217  -0.68328
 Alpha  occ. eigenvalues --   -0.67051  -0.65758  -0.65444  -0.64534  -0.61071
 Alpha  occ. eigenvalues --   -0.59925  -0.59114  -0.57606  -0.57019  -0.56842
 Alpha  occ. eigenvalues --   -0.56201  -0.55877  -0.55393  -0.55231  -0.55014
 Alpha  occ. eigenvalues --   -0.54158  -0.53054  -0.52660  -0.52370  -0.51719
 Alpha  occ. eigenvalues --   -0.51605  -0.51390  -0.50475  -0.50366  -0.49836
 Alpha  occ. eigenvalues --   -0.49204  -0.49016  -0.48702  -0.48403  -0.47865
 Alpha  occ. eigenvalues --   -0.47145  -0.45964  -0.45699  -0.45166  -0.44962
 Alpha  occ. eigenvalues --   -0.44434  -0.42425  -0.34454  -0.32890  -0.30499
 Alpha  occ. eigenvalues --   -0.28641
 Alpha virt. eigenvalues --    0.07476   0.08608   0.09538   0.14128   0.16104
 Alpha virt. eigenvalues --    0.16514   0.17477   0.18025   0.18777   0.19500
 Alpha virt. eigenvalues --    0.19992   0.20646   0.21298   0.22294   0.22742

 Mulliken charges:
               1
     1  C   -0.179036
     2  N   -0.485013
     3  C    0.072986
     4  N   -0.489081
     5  C    0.745813
     6  F   -0.290797
     7  F   -0.266905
     8  C    0.402197
     9  F   -0.271097
    10  O   -0.510579
    11  C    1.000597
    12  F   -0.242379
    13  F   -0.241340
    14  F   -0.242665
    15  C    0.807879
    16  F   -0.242753
    17  F   -0.243895
    18  F   -0.260518
    19  C    0.058271
    20  N   -0.482042
    21  C   -0.173488
    22  C    0.769993
    23  O   -0.584662
    24  H    0.118703
    25  H    0.122236
    26  H    0.153626
    27  H    0.147746
    28  H    0.140927
    29  H    0.139551
    30  H    0.146168
    31  H    0.115817
    32  H    0.115547
    33  H    0.148196
 Sum of Mulliken charges =   0.00000

 Dipole moment (field-independent basis, Debye):
    X=              0.4178    Y=             -2.5978    Z=              2.5120  Tot=              3.6378
 Quadrupole moment (field-independent basis, Debye-Ang):
   XX=           -128.5342   YY=           -131.1159   ZZ=           -122.3538
   XY=             14.9683   XZ=              1.1856   YZ=              1.9745

 Normal termination of Gaussian 09 at Sun Mar  3 18:24:29 2024.
