 Gaussian 09, Revision D.01,
 Gaussian 09:  ES64L-G09RevD.01 24-Apr-2013

 ----------------------------------------------------------------------
 #p CAM-B3LYP/6-31G(d,p) SCRF=(PCM,Solvent=Generic,Read) NoSymm out=wfn
 ----------------------------------------------------------------------

 --------------------
 Title A1013755062_p1
 --------------------
 Symbolic Z-matrix:
 Charge =  1 Multiplicity = 2

                          Input orientation:
 ---------------------------------------------------------------------
 Center     Atomic      Atomic             Coordinates (Angstroms)
 Number     Number       Type             X           Y           Z
 ---------------------------------------------------------------------
      1          6           0       -3.743088   -0.452419   -0.822903
      2          7           0       -2.461147   -0.259672   -0.169974
      3          6           0       -1.787096   -1.446243    0.290320
      4          7           0       -0.409524   -1.183483    0.626261
      5          6           0        0.454561   -1.144411   -0.556549
      6          9           0        0.388328   -2.409612   -1.067700
      7          9           0       -0.089290   -0.347694   -1.515844
      8          6           0        1.953677   -0.760108   -0.385639
      9          9           0        2.481840   -1.508042    0.632077
     10          8           0        2.052438    0.611340    0.025544
     11          6           0        3.366022    1.098690    0.042048
     12          9           0        3.728518    1.446050   -1.202723
     13          9           0        3.396721    2.196395    0.822080
     14          9           0        4.219926    0.193040    0.542865
     15          6           0        2.639158   -1.111153   -1.718163
     16          9           0        2.178739   -0.355030   -2.739956
     17          9           0        2.492569   -2.407129   -2.071837
     18          9           0        3.978188   -0.900646   -1.654952
     19          6           0       -0.352739   -0.075295    1.535379
     20          7           0       -0.908905    1.094547    0.929771
     21          6           0       -0.554042    2.373278    1.518498
     22          6           0       -2.120381    1.007263    0.263305
     23          8           0       -2.822060    1.993563    0.047071
     24          1           0       -4.460867   -0.821261   -0.084104
     25          1           0       -3.631647   -1.186591   -1.626207
     26          1           0       -4.123341    0.478310   -1.252576
     27          1           0       -1.877440   -2.233389   -0.467917
     28          1           0       -2.328324   -1.808864    1.173946
     29          1           0       -0.934371   -0.291878    2.442236
     30          1           0        0.664883    0.114928    1.888765
     31          1           0        0.531685    2.436549    1.632302
     32          1           0       -1.035667    2.458375    2.497358
     33          1           0       -0.887328    3.200594    0.885136
 ---------------------------------------------------------------------

 SCF Done:  E(UCAM-B3LYP) =  -1561.51359045     A.U. after   24 cycles

 Alpha  occ. eigenvalues --  -24.86020 -24.86008 -24.85991 -24.85845 -24.85622
 Alpha  occ. eigenvalues --  -24.85440 -24.85347 -24.85173 -24.84772 -19.36386
 Alpha  occ. eigenvalues --  -19.26865 -14.59709 -14.57427 -14.52071 -10.62161
 Alpha  occ. eigenvalues --  -10.57789 -10.54775 -10.52100 -10.48301 -10.42132
 Alpha  occ. eigenvalues --  -10.41221 -10.36328 -10.35522  -1.45602  -1.43903
 Alpha  occ. eigenvalues --   -1.41783  -1.38404  -1.35842  -1.35643  -1.35272
 Alpha  occ. eigenvalues --   -1.34407  -1.34013  -1.24236  -1.23802  -1.16314
 Alpha  occ. eigenvalues --   -1.13843  -1.08816  -0.96149  -0.90715  -0.90523
 Alpha  occ. eigenvalues --   -0.88150  -0.84846  -0.82484  -0.81424  -0.78289
 Alpha  occ. eigenvalues --   -0.75741  -0.74683  -0.73433  -0.72770  -0.71929
 Alpha  occ. eigenvalues --   -0.71158  -0.70638  -0.70072  -0.68642  -0.68371
 Alpha  occ. eigenvalues --   -0.66923  -0.66223  -0.65560  -0.64156  -0.62655
 Alpha  occ. eigenvalues --   -0.61372  -0.59815  -0.59632  -0.59331  -0.58784
 Alpha  occ. eigenvalues --   -0.57996  -0.57521  -0.57351  -0.56940  -0.56720
 Alpha  occ. eigenvalues --   -0.56152  -0.55041  -0.54875  -0.54361  -0.54179
 Alpha  occ. eigenvalues --   -0.53504  -0.53383  -0.53214  -0.52960  -0.52655
 Alpha  occ. eigenvalues --   -0.52496  -0.52285  -0.52011  -0.51553  -0.50672
 Alpha  occ. eigenvalues --   -0.48888  -0.46622  -0.43492  -0.41835  -0.41657
 Alpha  occ. eigenvalues --   -0.40770
 Alpha virt. eigenvalues --    0.00096   0.03965   0.04888   0.08495   0.10540
 Alpha virt. eigenvalues --    0.11033   0.11651   0.12268   0.12890   0.13608
 Alpha virt. eigenvalues --    0.13989   0.15627   0.15957   0.17027   0.17299

  Beta  occ. eigenvalues --  -24.86020 -24.86000 -24.85991 -24.85845 -24.85622
  Beta  occ. eigenvalues --  -24.85440 -24.85341 -24.85173 -24.84772 -19.36384
  Beta  occ. eigenvalues --  -19.26991 -14.58473 -14.56467 -14.52052 -10.62161
  Beta  occ. eigenvalues --  -10.57789 -10.54778 -10.52099 -10.48447 -10.42163
  Beta  occ. eigenvalues --  -10.41247 -10.36357 -10.35540  -1.45601  -1.43902
  Beta  occ. eigenvalues --   -1.41771  -1.38403  -1.35841  -1.35642  -1.35264
  Beta  occ. eigenvalues --   -1.34402  -1.34011  -1.23830  -1.23288  -1.16126
  Beta  occ. eigenvalues --   -1.11664  -1.08117  -0.96120  -0.90376  -0.90218
  Beta  occ. eigenvalues --   -0.87996  -0.84820  -0.81686  -0.81274  -0.78217
  Beta  occ. eigenvalues --   -0.75666  -0.74523  -0.73317  -0.72561  -0.71669
  Beta  occ. eigenvalues --   -0.71044  -0.70420  -0.69939  -0.68605  -0.68055
  Beta  occ. eigenvalues --   -0.66634  -0.64784  -0.64091  -0.62658  -0.62042
  Beta  occ. eigenvalues --   -0.60788  -0.59658  -0.59366  -0.59305  -0.58702
  Beta  occ. eigenvalues --   -0.57911  -0.57497  -0.57337  -0.56690  -0.56172
  Beta  occ. eigenvalues --   -0.56044  -0.54864  -0.54670  -0.54335  -0.54097
  Beta  occ. eigenvalues --   -0.53351  -0.53212  -0.52914  -0.52766  -0.52593
  Beta  occ. eigenvalues --   -0.52249  -0.51993  -0.51878  -0.51546  -0.50657
  Beta  occ. eigenvalues --   -0.48873  -0.46593  -0.41536  -0.41268  -0.37239
  Beta virt. eigenvalues --   -0.21777   0.00743   0.04004   0.04926   0.08637
  Beta virt. eigenvalues --    0.10657   0.11362   0.11995   0.12771   0.13175
  Beta virt. eigenvalues --    0.13800   0.14453   0.15818   0.16144   0.17277

 Mulliken charges and spin densities:
               1          2
     1  C   -0.220291  -0.025799
     2  N   -0.344714   0.555466
     3  C    0.022869  -0.025478
     4  N   -0.470032   0.009464
     5  C    0.740916  -0.002353
     6  F   -0.274612   0.001113
     7  F   -0.263378   0.001783
     8  C    0.407029   0.000698
     9  F   -0.261019   0.000061
    10  O   -0.526526   0.000168
    11  C    1.007603   0.000012
    12  F   -0.236871  -0.000003
    13  F   -0.237866   0.000014
    14  F   -0.236948   0.000030
    15  C    0.816188   0.000030
    16  F   -0.239871   0.000024
    17  F   -0.239023   0.000023
    18  F   -0.253292   0.000026
    19  C    0.018692  -0.017269
    20  N   -0.371739   0.432590
    21  C   -0.209129  -0.019014
    22  C    0.804000  -0.086978
    23  O   -0.493711  -0.042626
    24  H    0.208473   0.047131
    25  H    0.196098   0.019287
    26  H    0.211390   0.003815
    27  H    0.221063   0.016496
    28  H    0.231782   0.042063
    29  H    0.214306   0.026943
    30  H    0.206903   0.006841
    31  H    0.174336   0.009587
    32  H    0.196688   0.040751
    33  H    0.200689   0.005103
 Sum of Mulliken charges =   1.00000   1.00000

 Dipole moment (field-independent basis, Debye):
    X=             -7.7183    Y=             -1.4085    Z=              4.3800  Tot=              8.9856
 Quadrupole moment (field-independent basis, Debye-Ang):
   XX=            -96.9746   YY=           -116.4886   ZZ=           -111.7652
   XY=             15.4720   XZ=              1.4484   YZ=              6.0163

 Normal termination of Gaussian 09 at Sun Mar  3 18:24:59 2024.
