 Gaussian 09, Revision D.01,
 Gaussian 09:  ES64L-G09RevD.01 24-Apr-2013

 ----------------------------------------------------------------------
 #p CAM-B3LYP/6-31G(d,p) SCRF=(PCM,Solvent=Generic,Read) NoSymm out=wfn
 ----------------------------------------------------------------------

 --------------
 Title TAG2_pos
 --------------
 Symbolic Z-matrix:
 Charge =  1 Multiplicity = 2

                          Input orientation:
 ---------------------------------------------------------------------
 Center     Atomic      Atomic             Coordinates (Angstroms)
 Number     Number       Type             X           Y           Z
 ---------------------------------------------------------------------
      1          8           0        0.061414   -4.093785   -1.224184
      2          6           0       -0.088168   -2.916267   -0.940900
      3          7           0        0.940816   -2.001872   -0.670481
      4          6           0        2.257821   -2.226158   -1.249684
      5          6           0        3.404569   -1.698866   -0.399259
      6          6           0        4.774848   -1.965140   -1.027963
      7          6           0        5.891870   -1.445523   -0.121258
      8          9           0        5.650024   -0.128647    0.134871
      9          9           0        5.816655   -2.084010    1.078889
     10          6           0        7.297358   -1.644007   -0.740778
     11          9           0        7.405300   -0.967142   -1.914936
     12          9           0        7.427854   -2.960208   -1.085168
     13          8           0        8.436665   -1.361082    0.032563
     14          6           0        8.365467   -0.079385    0.583162
     15          9           0        9.605640    0.298614    0.955258
     16          9           0        7.583372   -0.103459    1.675843
     17          9           0        7.892322    0.813732   -0.303317
     18          6           0        0.380041   -0.681924   -0.480510
     19          6           0       -1.102540   -0.819436   -0.913205
     20          7           0       -1.306703   -2.246018   -0.919854
     21          6           0       -2.571278   -2.877407   -1.243244
     22          6           0       -3.252629   -3.388595    0.026293
     23          6           0       -4.598678   -4.083799   -0.204323
     24          6           0       -5.674305   -3.169395   -0.789026
     25          9           0       -5.329196   -2.859966   -2.073139
     26          9           0       -5.674694   -1.985757   -0.120386
     27          6           0       -7.086078   -3.812265   -0.767037
     28          9           0       -8.003196   -3.009250   -1.363083
     29          9           0       -7.046851   -4.938969   -1.538488
     30          8           0       -7.615549   -4.239126    0.465596
     31          6           0       -7.700166   -3.176381    1.372785
     32          9           0       -8.096219   -2.032806    0.790883
     33          9           0       -8.585651   -3.501712    2.334266
     34          9           0       -6.497759   -2.997931    1.951727
     35          7           0       -1.835615   -0.106258    0.096183
     36          6           0       -3.202083    0.359145   -0.048557
     37          6           0       -3.309283    1.859844   -0.347288
     38          6           0       -2.731712    2.240872   -1.710283
     39          6           0       -2.734109    3.742991   -2.000022
     40          9           0       -2.097478    3.909180   -3.201919
     41          9           0       -1.942714    4.363160   -1.080703
     42          6           0       -4.122536    4.410592   -2.058885
     43          9           0       -3.993852    5.710560   -2.419691
     44          9           0       -4.713383    4.389035   -0.839878
     45          8           0       -4.962783    3.773116   -2.993170
     46          6           0       -6.278116    4.221437   -2.823789
     47          9           0       -6.357185    5.556445   -2.694794
     48          9           0       -6.830900    3.619031   -1.753601
     49          9           0       -6.987963    3.858598   -3.913164
     50          6           0       -1.020446    0.203023    1.178002
     51          8           0       -1.366170    0.819516    2.171431
     52          7           0        0.269503   -0.259249    0.906967
     53          6           0        1.392864    0.103360    1.747529
     54          6           0        2.042815    1.421663    1.327464
     55          6           0        3.337244    1.679639    2.105881
     56          6           0        4.027418    2.957302    1.631069
     57          9           0        3.173477    4.004351    1.815814
     58          9           0        4.233310    2.869262    0.284746
     59          6           0        5.359344    3.231946    2.355742
     60          9           0        6.232381    2.222275    2.103442
     61          9           0        5.919853    4.375773    1.893592
     62          8           0        5.193038    3.306817    3.753364
     63          6           0        6.306250    3.934053    4.319820
     64          9           0        6.234625    5.263480    4.134026
     65          9           0        7.463614    3.460859    3.824093
     66          9           0        6.288540    3.694512    5.649489
     67          1           0        2.395446   -3.300869   -1.412569
     68          1           0        2.261326   -1.754469   -2.239206
     69          1           0        3.293408   -0.619257   -0.264195
     70          1           0        3.361951   -2.164701    0.592860
     71          1           0        4.825108   -1.464784   -2.003879
     72          1           0        4.900238   -3.042908   -1.191908
     73          1           0        0.898377    0.078934   -1.074352
     74          1           0       -1.279029   -0.417498   -1.916975
     75          1           0       -2.382383   -3.720188   -1.918938
     76          1           0       -3.183760   -2.153325   -1.784833
     77          1           0       -2.581939   -4.102973    0.523860
     78          1           0       -3.388222   -2.564238    0.737149
     79          1           0       -4.449230   -4.941880   -0.870116
     80          1           0       -4.929886   -4.476692    0.763460
     81          1           0       -3.707877   -0.220265   -0.825712
     82          1           0       -3.711769    0.162077    0.901068
     83          1           0       -2.804295    2.432682    0.439323
     84          1           0       -4.370679    2.129753   -0.315593
     85          1           0       -1.688485    1.909622   -1.766081
     86          1           0       -3.263212    1.706227   -2.506547
     87          1           0        1.036498    0.196845    2.780410
     88          1           0        2.104886   -0.721748    1.741071
     89          1           0        2.263510    1.410043    0.254623
     90          1           0        1.336121    2.244339    1.490019
     91          1           0        3.101626    1.755344    3.174042
     92          1           0        4.011948    0.827541    1.968194
 ---------------------------------------------------------------------

 SCF Done:  E(UCAM-B3LYP) =  -4547.01006200     A.U. after   33 cycles

 Alpha  occ. eigenvalues --  -24.85232 -24.85133 -24.84965 -24.84900 -24.84647
 Alpha  occ. eigenvalues --  -24.84619 -24.84463 -24.84302 -24.84293 -24.84248
 Alpha  occ. eigenvalues --  -24.84100 -24.84068 -24.83853 -24.83784 -24.83604
 Alpha  occ. eigenvalues --  -24.83557 -24.83542 -24.83485 -24.83483 -24.83338
 Alpha  occ. eigenvalues --  -24.83301 -24.83168 -24.83120 -24.82991 -24.82790
 Alpha  occ. eigenvalues --  -24.82759 -24.82390 -24.82288 -19.34221 -19.34196
 Alpha  occ. eigenvalues --  -19.33723 -19.33609 -19.27522 -19.25523 -14.58175
 Alpha  occ. eigenvalues --  -14.57941 -14.51925 -14.51278 -10.60949 -10.60707
 Alpha  occ. eigenvalues --  -10.60354 -10.60249 -10.54673 -10.54262 -10.54144
 Alpha  occ. eigenvalues --  -10.54134 -10.48807 -10.48775 -10.48747 -10.48542
 Alpha  occ. eigenvalues --  -10.48479 -10.45776 -10.43827 -10.43516 -10.37582
 Alpha  occ. eigenvalues --  -10.36967 -10.35090 -10.34746 -10.32537 -10.32371
 Alpha  occ. eigenvalues --  -10.32345 -10.31924 -10.31670 -10.31453 -10.31125
 Alpha  occ. eigenvalues --  -10.30759  -1.44548  -1.44298  -1.43976  -1.43829
 Alpha  occ. eigenvalues --   -1.40825  -1.40222  -1.40221  -1.39915  -1.38291
 Alpha  occ. eigenvalues --   -1.38066  -1.37649  -1.37473  -1.35137  -1.34833
 Alpha  occ. eigenvalues --   -1.34574  -1.34436  -1.34262  -1.33862  -1.33819
 Alpha  occ. eigenvalues --   -1.33515  -1.33456  -1.32957  -1.32603  -1.32580
 Alpha  occ. eigenvalues --   -1.32179  -1.31741  -1.31528  -1.31489  -1.24801
 Alpha  occ. eigenvalues --   -1.22310  -1.22228  -1.21858  -1.21816  -1.20537
 Alpha  occ. eigenvalues --   -1.16186  -1.13116  -1.10905  -1.06809  -0.97033
 Alpha  occ. eigenvalues --   -0.95226  -0.94900  -0.93973  -0.92808  -0.91070
 Alpha  occ. eigenvalues --   -0.90624  -0.89362  -0.89145  -0.87233  -0.86128
 Alpha  occ. eigenvalues --   -0.85709  -0.84447  -0.82640  -0.82456  -0.81628
 Alpha  occ. eigenvalues --   -0.80578  -0.79527  -0.78522  -0.77374  -0.76783
 Alpha  occ. eigenvalues --   -0.76301  -0.75543  -0.74357  -0.74315  -0.73134
 Alpha  occ. eigenvalues --   -0.72998  -0.72771  -0.72592  -0.72502  -0.72261
 Alpha  occ. eigenvalues --   -0.71980  -0.71866  -0.71727  -0.71678  -0.71586
 Alpha  occ. eigenvalues --   -0.71443  -0.71309  -0.71238  -0.70936  -0.69490
 Alpha  occ. eigenvalues --   -0.69041  -0.68903  -0.68799  -0.68510  -0.68159
 Alpha  occ. eigenvalues --   -0.68050  -0.67860  -0.67741  -0.67475  -0.66028
 Alpha  occ. eigenvalues --   -0.65886  -0.65565  -0.65369  -0.65227  -0.64121
 Alpha  occ. eigenvalues --   -0.63519  -0.63446  -0.63012  -0.62364  -0.62061
 Alpha  occ. eigenvalues --   -0.61971  -0.61797  -0.61686  -0.61230  -0.60527
 Alpha  occ. eigenvalues --   -0.60202  -0.59396  -0.59159  -0.59114  -0.58884
 Alpha  occ. eigenvalues --   -0.58391  -0.58257  -0.58144  -0.58083  -0.57980
 Alpha  occ. eigenvalues --   -0.57792  -0.57439  -0.57193  -0.56872  -0.56813
 Alpha  occ. eigenvalues --   -0.56745  -0.56435  -0.56229  -0.55968  -0.55767
 Alpha  occ. eigenvalues --   -0.55572  -0.55374  -0.55223  -0.55119  -0.54976
 Alpha  occ. eigenvalues --   -0.54809  -0.54739  -0.54606  -0.54408  -0.54309
 Alpha  occ. eigenvalues --   -0.54050  -0.54022  -0.53879  -0.53751  -0.53587
 Alpha  occ. eigenvalues --   -0.53435  -0.53345  -0.53062  -0.52901  -0.52818
 Alpha  occ. eigenvalues --   -0.52554  -0.52508  -0.52293  -0.52190  -0.51998
 Alpha  occ. eigenvalues --   -0.51966  -0.51835  -0.51826  -0.51687  -0.51643
 Alpha  occ. eigenvalues --   -0.51531  -0.51429  -0.51086  -0.50959  -0.50856
 Alpha  occ. eigenvalues --   -0.50814  -0.50676  -0.50523  -0.50453  -0.50340
 Alpha  occ. eigenvalues --   -0.50283  -0.50246  -0.50237  -0.50185  -0.49998
 Alpha  occ. eigenvalues --   -0.49930  -0.49702  -0.49185  -0.48414  -0.47719
 Alpha  occ. eigenvalues --   -0.47216  -0.47108  -0.47005  -0.46918  -0.46795
 Alpha  occ. eigenvalues --   -0.46381  -0.46291  -0.46192  -0.45875  -0.45332
 Alpha  occ. eigenvalues --   -0.45034  -0.44672  -0.44464  -0.43675  -0.43138
 Alpha  occ. eigenvalues --   -0.42410  -0.42269  -0.41847  -0.39582  -0.38906
 Alpha  occ. eigenvalues --   -0.37115
 Alpha virt. eigenvalues --    0.00707   0.02743   0.05976   0.07060   0.07882
 Alpha virt. eigenvalues --    0.08326   0.08779   0.08878   0.09537   0.09772
 Alpha virt. eigenvalues --    0.10047   0.10306   0.10579   0.10762   0.11106

  Beta  occ. eigenvalues --  -24.85232 -24.85132 -24.84965 -24.84900 -24.84647
  Beta  occ. eigenvalues --  -24.84619 -24.84463 -24.84302 -24.84293 -24.84248
  Beta  occ. eigenvalues --  -24.84100 -24.84067 -24.83853 -24.83784 -24.83604
  Beta  occ. eigenvalues --  -24.83557 -24.83542 -24.83485 -24.83483 -24.83338
  Beta  occ. eigenvalues --  -24.83301 -24.83168 -24.83120 -24.82991 -24.82790
  Beta  occ. eigenvalues --  -24.82759 -24.82390 -24.82286 -19.34221 -19.34196
  Beta  occ. eigenvalues --  -19.33723 -19.33609 -19.27652 -19.25475 -14.57248
  Beta  occ. eigenvalues --  -14.56988 -14.51681 -14.51074 -10.60949 -10.60707
  Beta  occ. eigenvalues --  -10.60354 -10.60249 -10.54673 -10.54262 -10.54144
  Beta  occ. eigenvalues --  -10.54133 -10.48804 -10.48775 -10.48747 -10.48646
  Beta  occ. eigenvalues --  -10.48473 -10.45795 -10.43846 -10.43541 -10.37600
  Beta  occ. eigenvalues --  -10.36985 -10.35093 -10.34751 -10.32454 -10.32367
  Beta  occ. eigenvalues --  -10.32266 -10.31917 -10.31670 -10.31443 -10.31126
  Beta  occ. eigenvalues --  -10.30752  -1.44548  -1.44298  -1.43976  -1.43829
  Beta  occ. eigenvalues --   -1.40823  -1.40222  -1.40219  -1.39915  -1.38291
  Beta  occ. eigenvalues --   -1.38066  -1.37646  -1.37473  -1.35137  -1.34832
  Beta  occ. eigenvalues --   -1.34574  -1.34436  -1.34262  -1.33862  -1.33819
  Beta  occ. eigenvalues --   -1.33515  -1.33456  -1.32956  -1.32603  -1.32580
  Beta  occ. eigenvalues --   -1.32179  -1.31741  -1.31528  -1.31487  -1.24035
  Beta  occ. eigenvalues --   -1.22310  -1.22228  -1.21858  -1.21816  -1.20395
  Beta  occ. eigenvalues --   -1.15890  -1.11542  -1.10356  -1.06083  -0.96834
  Beta  occ. eigenvalues --   -0.95112  -0.94790  -0.93937  -0.92693  -0.90987
  Beta  occ. eigenvalues --   -0.90459  -0.89230  -0.89073  -0.87121  -0.86077
  Beta  occ. eigenvalues --   -0.85613  -0.84345  -0.82617  -0.82231  -0.81540
  Beta  occ. eigenvalues --   -0.80477  -0.79353  -0.78322  -0.77356  -0.76663
  Beta  occ. eigenvalues --   -0.76261  -0.75444  -0.74289  -0.74132  -0.73124
  Beta  occ. eigenvalues --   -0.72945  -0.72632  -0.72450  -0.72348  -0.72201
  Beta  occ. eigenvalues --   -0.71968  -0.71727  -0.71673  -0.71561  -0.71476
  Beta  occ. eigenvalues --   -0.71312  -0.71263  -0.71014  -0.70899  -0.69203
  Beta  occ. eigenvalues --   -0.68929  -0.68879  -0.68759  -0.68394  -0.68058
  Beta  occ. eigenvalues --   -0.67975  -0.67826  -0.67637  -0.67435  -0.66024
  Beta  occ. eigenvalues --   -0.65732  -0.65554  -0.65355  -0.65042  -0.63680
  Beta  occ. eigenvalues --   -0.63374  -0.63228  -0.62884  -0.62340  -0.61952
  Beta  occ. eigenvalues --   -0.61842  -0.61534  -0.61348  -0.61094  -0.60064
  Beta  occ. eigenvalues --   -0.59445  -0.59126  -0.59030  -0.58922  -0.58675
  Beta  occ. eigenvalues --   -0.58340  -0.58229  -0.58106  -0.58055  -0.57929
  Beta  occ. eigenvalues --   -0.57701  -0.57391  -0.57124  -0.56863  -0.56799
  Beta  occ. eigenvalues --   -0.56693  -0.56410  -0.56152  -0.55811  -0.55673
  Beta  occ. eigenvalues --   -0.55555  -0.55192  -0.55141  -0.55086  -0.54872
  Beta  occ. eigenvalues --   -0.54744  -0.54581  -0.54393  -0.54317  -0.54236
  Beta  occ. eigenvalues --   -0.54039  -0.53917  -0.53860  -0.53627  -0.53538
  Beta  occ. eigenvalues --   -0.53405  -0.53282  -0.53032  -0.52819  -0.52795
  Beta  occ. eigenvalues --   -0.52538  -0.52456  -0.52170  -0.52118  -0.51986
  Beta  occ. eigenvalues --   -0.51954  -0.51828  -0.51718  -0.51635  -0.51565
  Beta  occ. eigenvalues --   -0.51489  -0.51421  -0.51069  -0.50909  -0.50835
  Beta  occ. eigenvalues --   -0.50800  -0.50662  -0.50478  -0.50422  -0.50330
  Beta  occ. eigenvalues --   -0.50271  -0.50239  -0.50210  -0.50148  -0.49927
  Beta  occ. eigenvalues --   -0.49827  -0.49660  -0.49145  -0.48374  -0.47600
  Beta  occ. eigenvalues --   -0.47159  -0.47067  -0.46972  -0.46867  -0.46660
  Beta  occ. eigenvalues --   -0.46362  -0.46232  -0.46169  -0.45817  -0.45090
  Beta  occ. eigenvalues --   -0.44879  -0.44384  -0.44263  -0.43651  -0.43114
  Beta  occ. eigenvalues --   -0.41909  -0.39520  -0.39031  -0.37807  -0.35934
  Beta virt. eigenvalues --   -0.22993   0.01272   0.02845   0.06145   0.07148
  Beta virt. eigenvalues --    0.07940   0.08356   0.08844   0.08965   0.09565
  Beta virt. eigenvalues --    0.09983   0.10134   0.10355   0.10658   0.10928

 Mulliken charges and spin densities:
               1          2
     1  O   -0.507261   0.019494
     2  C    0.810520  -0.014204
     3  N   -0.487879   0.103844
     4  C   -0.063940  -0.004204
     5  C   -0.235414   0.004539
     6  C   -0.251502   0.000419
     7  C    0.550351   0.000038
     8  F   -0.287019   0.000010
     9  F   -0.285074   0.000005
    10  C    0.750259   0.000015
    11  F   -0.258480   0.000002
    12  F   -0.270074   0.000000
    13  O   -0.491898   0.000020
    14  C    0.982041  -0.000001
    15  F   -0.242398   0.000000
    16  F   -0.245178   0.000000
    17  F   -0.244797   0.000000
    18  C    0.164456  -0.023284
    19  C    0.168750  -0.025484
    20  N   -0.471941   0.086558
    21  C   -0.080175  -0.003031
    22  C   -0.202690   0.003462
    23  C   -0.261873  -0.000237
    24  C    0.542575   0.000007
    25  F   -0.280544  -0.000001
    26  F   -0.282324   0.000079
    27  C    0.738646  -0.000005
    28  F   -0.257857  -0.000001
    29  F   -0.268046   0.000001
    30  O   -0.488830   0.000005
    31  C    0.982929   0.000000
    32  F   -0.238759   0.000001
    33  F   -0.238432   0.000000
    34  F   -0.247744   0.000001
    35  N   -0.395937   0.421406
    36  C   -0.105380  -0.017940
    37  C   -0.226447   0.037556
    38  C   -0.267404   0.000149
    39  C    0.549083   0.000846
    40  F   -0.284529   0.000471
    41  F   -0.275557   0.000077
    42  C    0.762116  -0.000061
    43  F   -0.258593   0.000006
    44  F   -0.256560   0.000215
    45  O   -0.513134   0.000017
    46  C    0.989775  -0.000002
    47  F   -0.237855   0.000001
    48  F   -0.247652   0.000002
    49  F   -0.245407   0.000000
    50  C    0.826125  -0.064548
    51  O   -0.487537  -0.046069
    52  N   -0.392792   0.431379
    53  C   -0.091152  -0.020547
    54  C   -0.228375   0.038741
    55  C   -0.259272   0.003815
    56  C    0.546693   0.001959
    57  F   -0.281167  -0.000017
    58  F   -0.283617  -0.000006
    59  C    0.765857   0.000477
    60  F   -0.262421   0.000003
    61  F   -0.263493   0.000259
    62  O   -0.516150   0.000020
    63  C    0.992799  -0.000004
    64  F   -0.243205   0.000001
    65  F   -0.244158   0.000000
    66  F   -0.247910   0.000001
    67  H    0.176863  -0.000099
    68  H    0.150125   0.007592
    69  H    0.117128  -0.000264
    70  H    0.151021   0.000042
    71  H    0.154887  -0.000022
    72  H    0.161833   0.000003
    73  H    0.208629   0.014981
    74  H    0.196559   0.000478
    75  H    0.171104   0.006196
    76  H    0.137668  -0.000054
    77  H    0.147981  -0.000117
    78  H    0.122282  -0.000220
    79  H    0.159649   0.000102
    80  H    0.152830   0.000103
    81  H    0.170831   0.003074
    82  H    0.201409   0.017633
    83  H    0.162127  -0.001461
    84  H    0.162502   0.001807
    85  H    0.134898   0.000036
    86  H    0.159706   0.000280
    87  H    0.194110   0.001837
    88  H    0.174037   0.014844
    89  H    0.135869  -0.001634
    90  H    0.162412  -0.001258
    91  H    0.167725  -0.000043
    92  H    0.148671  -0.000092
 Sum of Mulliken charges =   1.00000   1.00000

 Dipole moment (field-independent basis, Debye):
    X=             -3.2937    Y=             -5.0918    Z=             -1.9098  Tot=              6.3578
 Quadrupole moment (field-independent basis, Debye-Ang):
   XX=           -352.4440   YY=           -366.2314   ZZ=           -352.1734
   XY=             -0.0186   XZ=             -2.5189   YZ=             -0.1277

 Normal termination of Gaussian 09 at Sun Feb  2 08:56:04 2025.
