 Gaussian 09, Revision D.01,
 Gaussian 09:  ES64L-G09RevD.01 24-Apr-2013

 ----------------------------------------------------------------------
 #p CAM-B3LYP/6-31G(d,p) SCRF=(PCM,Solvent=Generic,Read) NoSymm out=wfn
 ----------------------------------------------------------------------

 --------------
 Title TAG2_neu
 --------------
 Symbolic Z-matrix:
 Charge =  0 Multiplicity = 1

                          Input orientation:
 ---------------------------------------------------------------------
 Center     Atomic      Atomic             Coordinates (Angstroms)
 Number     Number       Type             X           Y           Z
 ---------------------------------------------------------------------
      1          8           0        0.061414   -4.093785   -1.224184
      2          6           0       -0.088168   -2.916267   -0.940900
      3          7           0        0.940816   -2.001872   -0.670481
      4          6           0        2.257821   -2.226158   -1.249684
      5          6           0        3.404569   -1.698866   -0.399259
      6          6           0        4.774848   -1.965140   -1.027963
      7          6           0        5.891870   -1.445523   -0.121258
      8          9           0        5.650024   -0.128647    0.134871
      9          9           0        5.816655   -2.084010    1.078889
     10          6           0        7.297358   -1.644007   -0.740778
     11          9           0        7.405300   -0.967142   -1.914936
     12          9           0        7.427854   -2.960208   -1.085168
     13          8           0        8.436665   -1.361082    0.032563
     14          6           0        8.365467   -0.079385    0.583162
     15          9           0        9.605640    0.298614    0.955258
     16          9           0        7.583372   -0.103459    1.675843
     17          9           0        7.892322    0.813732   -0.303317
     18          6           0        0.380041   -0.681924   -0.480510
     19          6           0       -1.102540   -0.819436   -0.913205
     20          7           0       -1.306703   -2.246018   -0.919854
     21          6           0       -2.571278   -2.877407   -1.243244
     22          6           0       -3.252629   -3.388595    0.026293
     23          6           0       -4.598678   -4.083799   -0.204323
     24          6           0       -5.674305   -3.169395   -0.789026
     25          9           0       -5.329196   -2.859966   -2.073139
     26          9           0       -5.674694   -1.985757   -0.120386
     27          6           0       -7.086078   -3.812265   -0.767037
     28          9           0       -8.003196   -3.009250   -1.363083
     29          9           0       -7.046851   -4.938969   -1.538488
     30          8           0       -7.615549   -4.239126    0.465596
     31          6           0       -7.700166   -3.176381    1.372785
     32          9           0       -8.096219   -2.032806    0.790883
     33          9           0       -8.585651   -3.501712    2.334266
     34          9           0       -6.497759   -2.997931    1.951727
     35          7           0       -1.835615   -0.106258    0.096183
     36          6           0       -3.202083    0.359145   -0.048557
     37          6           0       -3.309283    1.859844   -0.347288
     38          6           0       -2.731712    2.240872   -1.710283
     39          6           0       -2.734109    3.742991   -2.000022
     40          9           0       -2.097478    3.909180   -3.201919
     41          9           0       -1.942714    4.363160   -1.080703
     42          6           0       -4.122536    4.410592   -2.058885
     43          9           0       -3.993852    5.710560   -2.419691
     44          9           0       -4.713383    4.389035   -0.839878
     45          8           0       -4.962783    3.773116   -2.993170
     46          6           0       -6.278116    4.221437   -2.823789
     47          9           0       -6.357185    5.556445   -2.694794
     48          9           0       -6.830900    3.619031   -1.753601
     49          9           0       -6.987963    3.858598   -3.913164
     50          6           0       -1.020446    0.203023    1.178002
     51          8           0       -1.366170    0.819516    2.171431
     52          7           0        0.269503   -0.259249    0.906967
     53          6           0        1.392864    0.103360    1.747529
     54          6           0        2.042815    1.421663    1.327464
     55          6           0        3.337244    1.679639    2.105881
     56          6           0        4.027418    2.957302    1.631069
     57          9           0        3.173477    4.004351    1.815814
     58          9           0        4.233310    2.869262    0.284746
     59          6           0        5.359344    3.231946    2.355742
     60          9           0        6.232381    2.222275    2.103442
     61          9           0        5.919853    4.375773    1.893592
     62          8           0        5.193038    3.306817    3.753364
     63          6           0        6.306250    3.934053    4.319820
     64          9           0        6.234625    5.263480    4.134026
     65          9           0        7.463614    3.460859    3.824093
     66          9           0        6.288540    3.694512    5.649489
     67          1           0        2.395446   -3.300869   -1.412569
     68          1           0        2.261326   -1.754469   -2.239206
     69          1           0        3.293408   -0.619257   -0.264195
     70          1           0        3.361951   -2.164701    0.592860
     71          1           0        4.825108   -1.464784   -2.003879
     72          1           0        4.900238   -3.042908   -1.191908
     73          1           0        0.898377    0.078934   -1.074352
     74          1           0       -1.279029   -0.417498   -1.916975
     75          1           0       -2.382383   -3.720188   -1.918938
     76          1           0       -3.183760   -2.153325   -1.784833
     77          1           0       -2.581939   -4.102973    0.523860
     78          1           0       -3.388222   -2.564238    0.737149
     79          1           0       -4.449230   -4.941880   -0.870116
     80          1           0       -4.929886   -4.476692    0.763460
     81          1           0       -3.707877   -0.220265   -0.825712
     82          1           0       -3.711769    0.162077    0.901068
     83          1           0       -2.804295    2.432682    0.439323
     84          1           0       -4.370679    2.129753   -0.315593
     85          1           0       -1.688485    1.909622   -1.766081
     86          1           0       -3.263212    1.706227   -2.506547
     87          1           0        1.036498    0.196845    2.780410
     88          1           0        2.104886   -0.721748    1.741071
     89          1           0        2.263510    1.410043    0.254623
     90          1           0        1.336121    2.244339    1.490019
     91          1           0        3.101626    1.755344    3.174042
     92          1           0        4.011948    0.827541    1.968194
 ---------------------------------------------------------------------

 SCF Done:  E(RCAM-B3LYP) =  -4547.27337781     A.U. after   12 cycles

 Alpha  occ. eigenvalues --  -24.83788 -24.83535 -24.83378 -24.83372 -24.83310
 Alpha  occ. eigenvalues --  -24.83242 -24.83080 -24.82970 -24.82970 -24.82892
 Alpha  occ. eigenvalues --  -24.82803 -24.82643 -24.82574 -24.82429 -24.82060
 Alpha  occ. eigenvalues --  -24.82055 -24.81906 -24.81767 -24.81766 -24.81618
 Alpha  occ. eigenvalues --  -24.81312 -24.81168 -24.81137 -24.80869 -24.80508
 Alpha  occ. eigenvalues --  -24.80448 -24.80100 -24.79908 -19.32710 -19.32459
 Alpha  occ. eigenvalues --  -19.32268 -19.32154 -19.19661 -19.19478 -14.44143
 Alpha  occ. eigenvalues --  -14.44136 -14.43809 -14.43772 -10.59502 -10.59212
 Alpha  occ. eigenvalues --  -10.59097 -10.58943 -10.52626 -10.52610 -10.52603
 Alpha  occ. eigenvalues --  -10.52258 -10.46749 -10.46630 -10.46077 -10.45910
 Alpha  occ. eigenvalues --  -10.39684 -10.39581 -10.35683 -10.35563 -10.30817
 Alpha  occ. eigenvalues --  -10.30732 -10.30390 -10.30239 -10.29200 -10.28663
 Alpha  occ. eigenvalues --  -10.28659 -10.28494 -10.27892 -10.27284 -10.27242
 Alpha  occ. eigenvalues --  -10.27081  -1.43085  -1.42808  -1.42705  -1.42543
 Alpha  occ. eigenvalues --   -1.38932  -1.38553  -1.38535  -1.38427  -1.36242
 Alpha  occ. eigenvalues --   -1.36204  -1.35260  -1.35230  -1.33646  -1.33350
 Alpha  occ. eigenvalues --   -1.33278  -1.33024  -1.33005  -1.32607  -1.32443
 Alpha  occ. eigenvalues --   -1.32246  -1.31669  -1.31384  -1.31090  -1.30928
 Alpha  occ. eigenvalues --   -1.30144  -1.29919  -1.29238  -1.29098  -1.20740
 Alpha  occ. eigenvalues --   -1.20555  -1.20482  -1.20297  -1.15426  -1.13718
 Alpha  occ. eigenvalues --   -1.08204  -1.03204  -1.02672  -0.98934  -0.92101
 Alpha  occ. eigenvalues --   -0.91730  -0.91390  -0.91206  -0.88587  -0.87485
 Alpha  occ. eigenvalues --   -0.86966  -0.86412  -0.84390  -0.83123  -0.82531
 Alpha  occ. eigenvalues --   -0.81239  -0.80942  -0.79638  -0.78978  -0.78686
 Alpha  occ. eigenvalues --   -0.77468  -0.75390  -0.75156  -0.74988  -0.74117
 Alpha  occ. eigenvalues --   -0.72757  -0.72108  -0.71599  -0.71332  -0.71087
 Alpha  occ. eigenvalues --   -0.70895  -0.70799  -0.70384  -0.70283  -0.70072
 Alpha  occ. eigenvalues --   -0.70037  -0.69908  -0.69774  -0.69685  -0.69463
 Alpha  occ. eigenvalues --   -0.68827  -0.68186  -0.67210  -0.67007  -0.66982
 Alpha  occ. eigenvalues --   -0.66500  -0.66205  -0.66034  -0.65915  -0.65820
 Alpha  occ. eigenvalues --   -0.64772  -0.64278  -0.64085  -0.63672  -0.63252
 Alpha  occ. eigenvalues --   -0.63137  -0.62597  -0.61283  -0.61103  -0.60933
 Alpha  occ. eigenvalues --   -0.60876  -0.60386  -0.60023  -0.59951  -0.59599
 Alpha  occ. eigenvalues --   -0.59435  -0.58307  -0.57404  -0.57243  -0.57137
 Alpha  occ. eigenvalues --   -0.56818  -0.56618  -0.56496  -0.56261  -0.56137
 Alpha  occ. eigenvalues --   -0.55881  -0.55521  -0.55447  -0.55216  -0.55207
 Alpha  occ. eigenvalues --   -0.54897  -0.54746  -0.54526  -0.54400  -0.54038
 Alpha  occ. eigenvalues --   -0.53774  -0.53723  -0.53672  -0.53445  -0.53313
 Alpha  occ. eigenvalues --   -0.52762  -0.52659  -0.52621  -0.52475  -0.52323
 Alpha  occ. eigenvalues --   -0.52273  -0.52167  -0.52018  -0.51819  -0.51711
 Alpha  occ. eigenvalues --   -0.51426  -0.51324  -0.51295  -0.51130  -0.51088
 Alpha  occ. eigenvalues --   -0.50961  -0.50797  -0.50579  -0.50431  -0.50315
 Alpha  occ. eigenvalues --   -0.50264  -0.50211  -0.50084  -0.49979  -0.49875
 Alpha  occ. eigenvalues --   -0.49769  -0.49552  -0.49472  -0.49373  -0.49246
 Alpha  occ. eigenvalues --   -0.49223  -0.49014  -0.48842  -0.48715  -0.48641
 Alpha  occ. eigenvalues --   -0.48545  -0.48446  -0.48357  -0.48274  -0.48103
 Alpha  occ. eigenvalues --   -0.47867  -0.47395  -0.47297  -0.46890  -0.46311
 Alpha  occ. eigenvalues --   -0.46139  -0.45782  -0.45524  -0.45350  -0.45320
 Alpha  occ. eigenvalues --   -0.45077  -0.44833  -0.44729  -0.43719  -0.43435
 Alpha  occ. eigenvalues --   -0.42936  -0.42203  -0.42051  -0.41987  -0.41802
 Alpha  occ. eigenvalues --   -0.41606  -0.41499  -0.41238  -0.40715  -0.40335
 Alpha  occ. eigenvalues --   -0.34874  -0.34299  -0.32994  -0.32429  -0.30499
 Alpha  occ. eigenvalues --   -0.29530
 Alpha virt. eigenvalues --    0.08370   0.09178   0.10235   0.10383   0.10604
 Alpha virt. eigenvalues --    0.11305   0.11729   0.11930   0.12016   0.12796
 Alpha virt. eigenvalues --    0.13057   0.13612   0.14246   0.14684   0.14977

 Mulliken charges:
               1
     1  O   -0.561968
     2  C    0.771934
     3  N   -0.506908
     4  C   -0.047642
     5  C   -0.221981
     6  C   -0.251124
     7  C    0.550111
     8  F   -0.286792
     9  F   -0.287292
    10  C    0.747441
    11  F   -0.260237
    12  F   -0.272039
    13  O   -0.494995
    14  C    0.980808
    15  F   -0.244652
    16  F   -0.244099
    17  F   -0.244688
    18  C    0.188170
    19  C    0.186717
    20  N   -0.485737
    21  C   -0.059191
    22  C   -0.195817
    23  C   -0.262939
    24  C    0.545734
    25  F   -0.281850
    26  F   -0.280307
    27  C    0.735094
    28  F   -0.260563
    29  F   -0.270684
    30  O   -0.491701
    31  C    0.981755
    32  F   -0.239116
    33  F   -0.240947
    34  F   -0.245193
    35  N   -0.499185
    36  C   -0.065615
    37  C   -0.211450
    38  C   -0.257523
    39  C    0.542304
    40  F   -0.291378
    41  F   -0.278983
    42  C    0.759514
    43  F   -0.263977
    44  F   -0.257323
    45  O   -0.512996
    46  C    0.987097
    47  F   -0.240367
    48  F   -0.247436
    49  F   -0.247798
    50  C    0.791902
    51  O   -0.566287
    52  N   -0.497536
    53  C   -0.058134
    54  C   -0.212112
    55  C   -0.258341
    56  C    0.544592
    57  F   -0.285604
    58  F   -0.287106
    59  C    0.761900
    60  F   -0.264615
    61  F   -0.267999
    62  O   -0.515075
    63  C    0.990409
    64  F   -0.244845
    65  F   -0.245803
    66  F   -0.249455
    67  H    0.147828
    68  H    0.117200
    69  H    0.118113
    70  H    0.138415
    71  H    0.145814
    72  H    0.150650
    73  H    0.138506
    74  H    0.134714
    75  H    0.136520
    76  H    0.120173
    77  H    0.132779
    78  H    0.127480
    79  H    0.148014
    80  H    0.141790
    81  H    0.123493
    82  H    0.142094
    83  H    0.137292
    84  H    0.120676
    85  H    0.137728
    86  H    0.139189
    87  H    0.144186
    88  H    0.122127
    89  H    0.114571
    90  H    0.134693
    91  H    0.149982
    92  H    0.135892
 Sum of Mulliken charges =   0.00000

 Dipole moment (field-independent basis, Debye):
    X=             -0.8190    Y=             -2.9100    Z=             -2.5455  Tot=              3.9520
 Quadrupole moment (field-independent basis, Debye-Ang):
   XX=           -390.1305   YY=           -390.7645   ZZ=           -366.3154
   XY=             -0.6355   XZ=             -6.5632   YZ=             -4.7350

 Normal termination of Gaussian 09 at Sun Feb  2 08:48:12 2025.
