 Gaussian 09, Revision D.01,
 Gaussian 09:  ES64L-G09RevD.01 24-Apr-2013

 ----------------------------------------------------------------------
 #p CAM-B3LYP/6-31G(d,p) opt SCRF=(PCM,Solvent=Generic,Read) NoSymm out
 =wfn
 ----------------------------------------------------------------------

 ----------------
 Title EHOPA2_neu
 ----------------
 Symbolic Z-matrix:
 Charge =  0 Multiplicity = 1

 SCF Done:  E(RCAM-B3LYP) =  -2167.58970123     A.U. after   13 cycles
 SCF Done:  E(RCAM-B3LYP) =  -2167.61033570     A.U. after   12 cycles
 SCF Done:  E(RCAM-B3LYP) =  -2167.61511044     A.U. after   12 cycles
 SCF Done:  E(RCAM-B3LYP) =  -2167.61656522     A.U. after   12 cycles
 SCF Done:  E(RCAM-B3LYP) =  -2167.61686687     A.U. after   12 cycles
 SCF Done:  E(RCAM-B3LYP) =  -2167.61739199     A.U. after   12 cycles
 SCF Done:  E(RCAM-B3LYP) =  -2167.61738761     A.U. after   12 cycles
 SCF Done:  E(RCAM-B3LYP) =  -2167.61775344     A.U. after   11 cycles
 SCF Done:  E(RCAM-B3LYP) =  -2167.61774463     A.U. after   11 cycles
 SCF Done:  E(RCAM-B3LYP) =  -2167.61794472     A.U. after    9 cycles
 SCF Done:  E(RCAM-B3LYP) =  -2167.62006943     A.U. after   11 cycles
 SCF Done:  E(RCAM-B3LYP) =  -2167.62008006     A.U. after   11 cycles
 SCF Done:  E(RCAM-B3LYP) =  -2167.62008138     A.U. after    8 cycles
 SCF Done:  E(RCAM-B3LYP) =  -2167.62008190     A.U. after    9 cycles
 SCF Done:  E(RCAM-B3LYP) =  -2167.62008346     A.U. after    9 cycles
 SCF Done:  E(RCAM-B3LYP) =  -2167.62008362     A.U. after    7 cycles
 SCF Done:  E(RCAM-B3LYP) =  -2167.62008370     A.U. after    7 cycles
 SCF Done:  E(RCAM-B3LYP) =  -2167.62008376     A.U. after    7 cycles
 SCF Done:  E(RCAM-B3LYP) =  -2167.62008379     A.U. after    7 cycles
 SCF Done:  E(RCAM-B3LYP) =  -2167.62008380     A.U. after    5 cycles
 Optimization completed.
    -- Stationary point found.

                          Input orientation:
 ---------------------------------------------------------------------
 Center     Atomic      Atomic             Coordinates (Angstroms)
 Number     Number       Type             X           Y           Z
 ---------------------------------------------------------------------
      1          6           0       -5.559902    1.914041    1.881841
      2          6           0       -4.506812    2.534446    0.965888
      3          6           0       -3.401325    1.567057    0.535774
      4          6           0       -3.895729    0.422573   -0.351837
      5          6           0       -2.805169   -0.497480   -0.926904
      6          6           0       -3.311980   -1.262787   -2.161862
      7          6           0       -3.474468   -0.400762   -3.411053
      8          6           0       -2.285307   -1.505412    0.092382
      9          8           0       -1.642719   -0.849575    1.167821
     10          6           0       -1.134245   -1.742336    2.138393
     11          6           0       -0.492739   -0.934688    3.254853
     12          6           0        0.441104    0.156697    2.725146
     13          7           0        1.343237   -0.333472    1.694243
     14          6           0        2.492034   -0.959159    2.000141
     15          6           0        3.194209   -1.612145    0.785105
     16          9           0        4.343990   -2.181923    1.185304
     17          9           0        2.369974   -2.580509    0.299954
     18          6           0        3.555884   -0.718908   -0.418421
     19          9           0        2.391330   -0.229629   -0.945416
     20          8           0        4.147747   -1.505573   -1.404652
     21          6           0        5.502789   -1.300460   -1.547612
     22          9           0        5.788457   -1.125211   -2.838754
     23          9           0        6.172652   -2.377551   -1.126043
     24          6           0        5.880069   -0.053079   -0.697377
     25          9           0        6.714915   -0.411823    0.283759
     26          9           0        6.481299    0.872391   -1.458376
     27          6           0        4.540444    0.426347   -0.078722
     28          6           0        4.029292    1.816176   -0.518425
     29          9           0        5.013312    2.710272   -0.271044
     30          6           0        3.560830    2.011994   -1.970844
     31          8           0        4.140134    1.141758   -2.791868
     32          8           0        2.788765    2.872885   -2.279109
     33          9           0        2.986872    2.111647    0.281330
     34          9           0        4.694306    0.523268    1.275352
     35          8           0        2.963297   -1.083926    3.112202
     36          1           0       -6.117704    1.117623    1.381452
     37          1           0       -6.285336    2.661981    2.213708
     38          1           0       -5.095982    1.481371    2.774395
     39          1           0       -4.996286    2.947368    0.074383
     40          1           0       -4.046660    3.386068    1.479922
     41          1           0       -2.635703    2.128124   -0.014946
     42          1           0       -2.904096    1.156365    1.418641
     43          1           0       -4.458994    0.862926   -1.183417
     44          1           0       -4.613454   -0.200210    0.197433
     45          1           0       -1.950007    0.119807   -1.237593
     46          1           0       -4.268081   -1.742909   -1.917209
     47          1           0       -2.614314   -2.076907   -2.391545
     48          1           0       -3.826826   -0.999722   -4.254990
     49          1           0       -2.520976    0.052607   -3.699488
     50          1           0       -4.193464    0.409149   -3.262981
     51          1           0       -1.574950   -2.194175   -0.392015
     52          1           0       -3.120135   -2.117247    0.471908
     53          1           0       -0.390061   -2.407599    1.673516
     54          1           0       -1.936501   -2.379784    2.537094
     55          1           0       -1.265006   -0.457922    3.866503
     56          1           0        0.063653   -1.618000    3.903516
     57          1           0        1.046797    0.565208    3.534888
     58          1           0       -0.140046    0.966732    2.284503
     59          1           0        0.986914   -0.377967    0.750912
     60          1           0        3.830667    1.301970   -3.699323
 ---------------------------------------------------------------------

 Alpha  occ. eigenvalues --  -24.83695 -24.82777 -24.82534 -24.82343 -24.82167
 Alpha  occ. eigenvalues --  -24.82159 -24.82012 -24.81980 -24.81400 -24.81306
 Alpha  occ. eigenvalues --  -19.31562 -19.31518 -19.25699 -19.22855 -19.20819
 Alpha  occ. eigenvalues --  -14.44890 -10.52088 -10.48287 -10.48232 -10.46855
 Alpha  occ. eigenvalues --  -10.46260 -10.44296 -10.42222 -10.38726 -10.30849
 Alpha  occ. eigenvalues --  -10.30392 -10.29848 -10.26267 -10.25953 -10.25530
 Alpha  occ. eigenvalues --  -10.24708 -10.24627 -10.24575 -10.24039 -10.23982
 Alpha  occ. eigenvalues --   -1.40504  -1.38576  -1.37922  -1.37448  -1.35769
 Alpha  occ. eigenvalues --   -1.34139  -1.32766  -1.31585  -1.31324  -1.30731
 Alpha  occ. eigenvalues --   -1.23669  -1.21938  -1.14595  -1.13944  -1.12295
 Alpha  occ. eigenvalues --   -1.02542  -0.94990  -0.90586  -0.90119  -0.87355
 Alpha  occ. eigenvalues --   -0.86501  -0.86072  -0.82579  -0.81035  -0.79065
 Alpha  occ. eigenvalues --   -0.78214  -0.76573  -0.75430  -0.74485  -0.72137
 Alpha  occ. eigenvalues --   -0.71206  -0.70978  -0.69894  -0.69288  -0.68542
 Alpha  occ. eigenvalues --   -0.68365  -0.67493  -0.66671  -0.66255  -0.65983
 Alpha  occ. eigenvalues --   -0.65638  -0.64534  -0.64255  -0.64022  -0.63386
 Alpha  occ. eigenvalues --   -0.63303  -0.62266  -0.59358  -0.57679  -0.57369
 Alpha  occ. eigenvalues --   -0.56736  -0.56629  -0.56425  -0.55648  -0.55250
 Alpha  occ. eigenvalues --   -0.55026  -0.54550  -0.54100  -0.53927  -0.53413
 Alpha  occ. eigenvalues --   -0.53082  -0.52891  -0.52825  -0.52536  -0.52260
 Alpha  occ. eigenvalues --   -0.52004  -0.51315  -0.50950  -0.50848  -0.50414
 Alpha  occ. eigenvalues --   -0.50261  -0.49849  -0.49772  -0.49402  -0.49222
 Alpha  occ. eigenvalues --   -0.48938  -0.48435  -0.48131  -0.47715  -0.46718
 Alpha  occ. eigenvalues --   -0.46501  -0.45988  -0.45330  -0.44939  -0.43914
 Alpha  occ. eigenvalues --   -0.43258  -0.43154  -0.42490  -0.42333  -0.41832
 Alpha  occ. eigenvalues --   -0.41345  -0.41132  -0.40815  -0.39666  -0.38728
 Alpha  occ. eigenvalues --   -0.38661  -0.38229  -0.37288  -0.36397  -0.35976
 Alpha  occ. eigenvalues --   -0.34033  -0.32838  -0.32378
 Alpha virt. eigenvalues --    0.01255   0.04381   0.05036   0.09665   0.10835
 Alpha virt. eigenvalues --    0.11493   0.12014   0.13780   0.14315   0.14551
 Alpha virt. eigenvalues --    0.15041   0.16570   0.16707   0.16984   0.17603

 Mulliken charges:
               1
     1  C   -0.317919
     2  C   -0.179826
     3  C   -0.175619
     4  C   -0.169625
     5  C   -0.087900
     6  C   -0.184094
     7  C   -0.321934
     8  C    0.091030
     9  O   -0.513107
    10  C    0.070772
    11  C   -0.217607
    12  C   -0.054826
    13  N   -0.529677
    14  C    0.550897
    15  C    0.554825
    16  F   -0.264810
    17  F   -0.279745
    18  C    0.464282
    19  F   -0.286575
    20  O   -0.487986
    21  C    0.769540
    22  F   -0.246739
    23  F   -0.246293
    24  C    0.531338
    25  F   -0.251071
    26  F   -0.254407
    27  C    0.156346
    28  C    0.604645
    29  F   -0.266163
    30  C    0.548641
    31  O   -0.485640
    32  O   -0.429997
    33  F   -0.262605
    34  F   -0.285153
    35  O   -0.513236
    36  H    0.103727
    37  H    0.100777
    38  H    0.100864
    39  H    0.088446
    40  H    0.090611
    41  H    0.083093
    42  H    0.108725
    43  H    0.088413
    44  H    0.089124
    45  H    0.086143
    46  H    0.096345
    47  H    0.091677
    48  H    0.105242
    49  H    0.104730
    50  H    0.109471
    51  H    0.080945
    52  H    0.083540
    53  H    0.087910
    54  H    0.097298
    55  H    0.117195
    56  H    0.125692
    57  H    0.143375
    58  H    0.137332
    59  H    0.286486
    60  H    0.363079
 Sum of Mulliken charges =   0.00000

 Dipole moment (field-independent basis, Debye):
    X=             -3.3669    Y=             -0.4163    Z=             -3.6845  Tot=              5.0085
 Quadrupole moment (field-independent basis, Debye-Ang):
   XX=           -210.3618   YY=           -207.8159   ZZ=           -194.1355
   XY=              9.7330   XZ=            -19.5102   YZ=              1.3039

 Normal termination of Gaussian 09 at Thu Feb  6 07:54:00 2025.
