 Gaussian 09, Revision D.01,
 Gaussian 09:  ES64L-G09RevD.01 24-Apr-2013

 ----------------------------------------------------------------------
 #p CAM-B3LYP/6-31G(d,p) SCRF=(PCM,Solvent=Generic,Read) NoSymm out=wfn
 ----------------------------------------------------------------------

 --------------------
 Title A1320413500_p1
 --------------------
 Symbolic Z-matrix:
 Charge =  1 Multiplicity = 2

                          Input orientation:
 ---------------------------------------------------------------------
 Center     Atomic      Atomic             Coordinates (Angstroms)
 Number     Number       Type             X           Y           Z
 ---------------------------------------------------------------------
      1          6           0        0.648390    3.630891    0.666049
      2          6           0        0.782185    3.260908   -0.813280
      3          6           0        0.040189    4.254723   -1.713042
      4          7           0        0.411030    1.849031   -1.065601
      5          6           0       -0.911754    1.459652   -0.960090
      6          8           0       -1.801269    2.244601   -0.639876
      7          7           0       -1.177177    0.129444   -1.181543
      8          6           0       -2.555123   -0.316393   -1.008611
      9          9           0       -3.359884    0.570165   -1.681000
     10          9           0       -2.751107   -1.473853   -1.696412
     11          6           0       -3.093530   -0.440660    0.448872
     12          9           0       -2.575530    0.600596    1.191772
     13          8           0       -4.509000   -0.224380    0.573751
     14          6           0       -5.307875   -1.278737    0.105036
     15          9           0       -4.972045   -1.607603   -1.147725
     16          9           0       -5.175200   -2.344175    0.908272
     17          9           0       -6.593480   -0.883885    0.119933
     18          6           0       -2.558847   -1.716324    1.097259
     19          9           0       -2.839999   -2.827936    0.392283
     20          9           0       -1.216931   -1.650293    1.268329
     21          9           0       -3.087623   -1.881529    2.335769
     22          6           0       -0.188321   -0.813268   -1.264683
     23          8           0       -0.434506   -2.008300   -1.130121
     24          7           0        1.087561   -0.358272   -1.450871
     25          6           0        2.152672   -1.352123   -1.530485
     26          9           0        3.223390   -0.791147   -2.164271
     27          9           0        1.758530   -2.331910   -2.395255
     28          6           0        2.597512   -1.976795   -0.180371
     29          9           0        1.582881   -2.745764    0.312725
     30          8           0        2.788914   -0.945065    0.793342
     31          6           0        3.422261   -1.395818    1.961352
     32          9           0        2.894687   -2.555206    2.381647
     33          9           0        3.251532   -0.468304    2.921558
     34          9           0        4.736136   -1.539915    1.728167
     35          6           0        3.802093   -2.864577   -0.523048
     36          9           0        4.194807   -3.602213    0.543824
     37          9           0        3.540627   -3.744933   -1.513585
     38          9           0        4.874927   -2.134996   -0.903153
     39          6           0        1.441818    0.926237   -1.125749
     40          8           0        2.603158    1.232682   -0.858761
     41          1           0        1.030078    4.641385    0.846582
     42          1           0        1.219610    2.937318    1.292532
     43          1           0       -0.391780    3.602592    1.004700
     44          1           0        1.842233    3.379705   -1.070617
     45          1           0       -1.015257    4.360797   -1.448229
     46          1           0        0.096662    3.944233   -2.761804
     47          1           0        0.492357    5.249416   -1.631545
 ---------------------------------------------------------------------

 SCF Done:  E(UCAM-B3LYP) =  -2874.06810491     A.U. after   35 cycles

 Alpha  occ. eigenvalues --  -24.87418 -24.86830 -24.86790 -24.86674 -24.86542
 Alpha  occ. eigenvalues --  -24.86329 -24.86117 -24.85941 -24.85911 -24.85797
 Alpha  occ. eigenvalues --  -24.85763 -24.85705 -24.85618 -24.85608 -24.85428
 Alpha  occ. eigenvalues --  -24.85281 -24.85039 -24.84916 -19.36384 -19.36316
 Alpha  occ. eigenvalues --  -19.36138 -19.35916 -19.30173 -14.67455 -14.60032
 Alpha  occ. eigenvalues --  -14.59911 -10.62162 -10.61839 -10.58084 -10.57993
 Alpha  occ. eigenvalues --  -10.57891 -10.57814 -10.55452 -10.55450 -10.52663
 Alpha  occ. eigenvalues --  -10.52561 -10.52403 -10.41787 -10.33369 -10.32276
 Alpha  occ. eigenvalues --   -1.45676  -1.45640  -1.44377  -1.44274  -1.42981
 Alpha  occ. eigenvalues --   -1.42807  -1.38940  -1.38643  -1.36170  -1.36114
 Alpha  occ. eigenvalues --   -1.35848  -1.35837  -1.35599  -1.35264  -1.35086
 Alpha  occ. eigenvalues --   -1.34665  -1.34585  -1.34340  -1.33001  -1.28488
 Alpha  occ. eigenvalues --   -1.25892  -1.23778  -1.23245  -1.20599  -1.16192
 Alpha  occ. eigenvalues --   -1.16001  -0.98834  -0.96890  -0.96574  -0.91931
 Alpha  occ. eigenvalues --   -0.90918  -0.87297  -0.85417  -0.85003  -0.84891
 Alpha  occ. eigenvalues --   -0.84502  -0.83071  -0.81125  -0.78961  -0.78264
 Alpha  occ. eigenvalues --   -0.76414  -0.75915  -0.75436  -0.75182  -0.74110
 Alpha  occ. eigenvalues --   -0.73316  -0.72908  -0.72381  -0.72308  -0.71649
 Alpha  occ. eigenvalues --   -0.71268  -0.71092  -0.70975  -0.70520  -0.69841
 Alpha  occ. eigenvalues --   -0.69236  -0.68627  -0.68126  -0.67559  -0.67013
 Alpha  occ. eigenvalues --   -0.65341  -0.64288  -0.63536  -0.62935  -0.62708
 Alpha  occ. eigenvalues --   -0.61448  -0.60960  -0.60086  -0.59909  -0.59838
 Alpha  occ. eigenvalues --   -0.59597  -0.59473  -0.59264  -0.58986  -0.58819
 Alpha  occ. eigenvalues --   -0.58401  -0.58187  -0.58080  -0.57732  -0.57677
 Alpha  occ. eigenvalues --   -0.57336  -0.57101  -0.56621  -0.56487  -0.56222
 Alpha  occ. eigenvalues --   -0.55506  -0.55238  -0.55161  -0.54800  -0.54664
 Alpha  occ. eigenvalues --   -0.54316  -0.54196  -0.53878  -0.53409  -0.53281
 Alpha  occ. eigenvalues --   -0.53212  -0.52866  -0.52760  -0.52317  -0.52247
 Alpha  occ. eigenvalues --   -0.51850  -0.51710  -0.51611  -0.51389  -0.51261
 Alpha  occ. eigenvalues --   -0.51220  -0.50745  -0.50474  -0.49969  -0.49007
 Alpha  occ. eigenvalues --   -0.48238  -0.47813  -0.47528  -0.46831  -0.45766
 Alpha  occ. eigenvalues --   -0.44482  -0.43166
 Alpha virt. eigenvalues --   -0.08879  -0.07011  -0.00032   0.01538   0.02712
 Alpha virt. eigenvalues --    0.02972   0.05114   0.07553   0.08744   0.09960
 Alpha virt. eigenvalues --    0.10492   0.13030   0.13723   0.13809   0.14250

  Beta  occ. eigenvalues --  -24.87404 -24.86829 -24.86784 -24.86673 -24.86542
  Beta  occ. eigenvalues --  -24.86319 -24.86117 -24.85941 -24.85911 -24.85797
  Beta  occ. eigenvalues --  -24.85762 -24.85705 -24.85618 -24.85608 -24.85428
  Beta  occ. eigenvalues --  -24.85281 -24.85039 -24.84916 -19.36313 -19.35916
  Beta  occ. eigenvalues --  -19.35679 -19.35441 -19.30179 -14.66247 -14.60071
  Beta  occ. eigenvalues --  -14.59941 -10.62162 -10.61839 -10.58084 -10.57993
  Beta  occ. eigenvalues --  -10.57891 -10.57813 -10.55681 -10.55675 -10.52668
  Beta  occ. eigenvalues --  -10.52562 -10.52404 -10.41733 -10.33198 -10.32199
  Beta  occ. eigenvalues --   -1.45675  -1.45639  -1.44376  -1.44270  -1.42970
  Beta  occ. eigenvalues --   -1.42798  -1.38929  -1.38641  -1.36169  -1.36097
  Beta  occ. eigenvalues --   -1.35848  -1.35832  -1.35598  -1.35250  -1.35086
  Beta  occ. eigenvalues --   -1.34663  -1.34583  -1.34339  -1.32071  -1.27455
  Beta  occ. eigenvalues --   -1.25529  -1.23764  -1.23242  -1.18573  -1.15818
  Beta  occ. eigenvalues --   -1.15648  -0.98499  -0.96767  -0.96408  -0.91607
  Beta  occ. eigenvalues --   -0.90878  -0.87035  -0.85323  -0.84956  -0.84556
  Beta  occ. eigenvalues --   -0.84092  -0.82987  -0.81016  -0.78954  -0.78093
  Beta  occ. eigenvalues --   -0.76358  -0.75832  -0.75401  -0.75157  -0.74043
  Beta  occ. eigenvalues --   -0.73291  -0.72753  -0.72306  -0.72133  -0.71315
  Beta  occ. eigenvalues --   -0.71097  -0.71027  -0.70768  -0.70041  -0.69720
  Beta  occ. eigenvalues --   -0.69013  -0.68335  -0.68028  -0.67433  -0.66386
  Beta  occ. eigenvalues --   -0.64748  -0.63524  -0.62807  -0.62143  -0.61937
  Beta  occ. eigenvalues --   -0.61154  -0.60838  -0.60015  -0.59825  -0.59674
  Beta  occ. eigenvalues --   -0.59491  -0.59298  -0.59122  -0.58788  -0.58635
  Beta  occ. eigenvalues --   -0.58342  -0.58159  -0.57809  -0.57697  -0.57636
  Beta  occ. eigenvalues --   -0.57261  -0.56797  -0.56507  -0.56385  -0.55726
  Beta  occ. eigenvalues --   -0.55434  -0.55153  -0.54932  -0.54738  -0.54557
  Beta  occ. eigenvalues --   -0.54198  -0.54025  -0.53842  -0.53260  -0.53204
  Beta  occ. eigenvalues --   -0.53121  -0.52762  -0.52723  -0.52289  -0.52206
  Beta  occ. eigenvalues --   -0.51795  -0.51615  -0.51443  -0.51289  -0.51238
  Beta  occ. eigenvalues --   -0.50835  -0.49919  -0.49216  -0.48203  -0.47959
  Beta  occ. eigenvalues --   -0.47604  -0.47076  -0.46486  -0.45343  -0.44011
  Beta  occ. eigenvalues --   -0.42741
  Beta virt. eigenvalues --   -0.29366  -0.07571  -0.05814   0.00481   0.01576
  Beta virt. eigenvalues --    0.02724   0.03183   0.05252   0.07687   0.09104
  Beta virt. eigenvalues --    0.09996   0.10562   0.13175   0.13845   0.13871

 Mulliken charges and spin densities:
               1          2
     1  C   -0.321317   0.094318
     2  C   -0.028635   0.020850
     3  C   -0.340057   0.038619
     4  N   -0.448510   0.556523
     5  C    0.894939  -0.131554
     6  O   -0.357892   0.275160
     7  N   -0.641997  -0.010302
     8  C    0.762188  -0.000643
     9  F   -0.259704   0.002151
    10  F   -0.233094   0.000224
    11  C    0.439298  -0.000502
    12  F   -0.272826   0.001127
    13  O   -0.488179   0.000123
    14  C    0.980316  -0.000007
    15  F   -0.231910   0.000006
    16  F   -0.235004   0.000002
    17  F   -0.232448  -0.000006
    18  C    0.827319   0.000007
    19  F   -0.237181   0.000022
    20  F   -0.250562   0.000064
    21  F   -0.250972   0.000006
    22  C    0.861490  -0.002152
    23  O   -0.435368  -0.001507
    24  N   -0.644436  -0.006553
    25  C    0.764496  -0.000637
    26  F   -0.244779   0.002798
    27  F   -0.242021   0.000272
    28  C    0.442321  -0.000133
    29  F   -0.246875   0.000232
    30  O   -0.520828   0.000364
    31  C    1.001970   0.000009
    32  F   -0.236739   0.000048
    33  F   -0.237019  -0.000001
    34  F   -0.237723   0.000016
    35  C    0.821157  -0.000124
    36  F   -0.252634   0.000025
    37  F   -0.238617   0.000009
    38  F   -0.242963   0.000033
    39  C    0.885686  -0.128515
    40  O   -0.352681   0.276936
    41  H    0.191571   0.001746
    42  H    0.163585  -0.001664
    43  H    0.174501  -0.002895
    44  H    0.230805   0.006161
    45  H    0.175760  -0.000845
    46  H    0.163724   0.006362
    47  H    0.181846   0.003827
 Sum of Mulliken charges =   1.00000   1.00000

 Dipole moment (field-independent basis, Debye):
    X=              2.0003    Y=             10.9249    Z=             -4.4250  Tot=             11.9555
 Quadrupole moment (field-independent basis, Debye-Ang):
   XX=           -205.4062   YY=           -174.6992   ZZ=           -198.7741
   XY=              7.8295   XZ=             -0.1294   YZ=            -10.4155

 Normal termination of Gaussian 09 at Sun Mar  3 17:51:12 2024.
