 Gaussian 09, Revision D.01,
 Gaussian 09:  ES64L-G09RevD.01 24-Apr-2013

 ----------------------------------------------------------------------
 #p CAM-B3LYP/6-31G(d,p) SCRF=(PCM,Solvent=Generic,Read) NoSymm out=wfn
 ----------------------------------------------------------------------

 -------------------
 Title A1320413500_0
 -------------------
 Symbolic Z-matrix:
 Charge =  0 Multiplicity = 1

                          Input orientation:
 ---------------------------------------------------------------------
 Center     Atomic      Atomic             Coordinates (Angstroms)
 Number     Number       Type             X           Y           Z
 ---------------------------------------------------------------------
      1          6           0       -0.402786    4.407561    0.119574
      2          6           0       -0.850560    3.300650   -0.839575
      3          6           0       -0.306819    3.525763   -2.252635
      4          7           0       -0.539455    1.942724   -0.340107
      5          6           0        0.756952    1.613884    0.009336
      6          8           0        1.718077    2.324545   -0.270683
      7          7           0        0.904642    0.425523    0.677931
      8          6           0        2.228408    0.111898    1.203415
      9          9           0        2.729782    1.231867    1.799430
     10          9           0        2.086950   -0.758509    2.244985
     11          6           0        3.241186   -0.455565    0.174069
     12          9           0        3.508876    0.495020   -0.767892
     13          8           0        2.636720   -1.536289   -0.546161
     14          6           0        3.551651   -2.267973   -1.318964
     15          9           0        4.256188   -3.084498   -0.520333
     16          9           0        4.375538   -1.451506   -1.993070
     17          9           0        2.862108   -3.012533   -2.202516
     18          6           0        4.510805   -0.763260    0.981013
     19          9           0        4.955856    0.298816    1.686949
     20          9           0        4.320336   -1.777797    1.853757
     21          9           0        5.534462   -1.133793    0.173880
     22          6           0        0.018896   -0.604284    0.498782
     23          8           0        0.262043   -1.745507    0.880445
     24          7           0       -1.158178   -0.303380   -0.138866
     25          6           0       -2.129415   -1.376825   -0.308386
     26          9           0       -3.038237   -1.053264   -1.274610
     27          9           0       -1.448896   -2.417841   -0.881869
     28          6           0       -2.897941   -1.904583    0.940911
     29          9           0       -2.036834   -2.388296    1.883307
     30          8           0       -3.857842   -2.948114    0.703414
     31          6           0       -3.323844   -4.069446    0.051797
     32          9           0       -3.311319   -3.843297   -1.272594
     33          9           0       -2.088129   -4.356238    0.486050
     34          9           0       -4.124807   -5.123970    0.296278
     35          6           0       -3.651232   -0.736793    1.567966
     36          9           0       -4.562800   -0.196721    0.733833
     37          9           0       -4.326071   -1.131655    2.678339
     38          9           0       -2.809556    0.247200    1.967679
     39          6           0       -1.540042    0.989804   -0.388333
     40          8           0       -2.710158    1.279983   -0.624739
     41          1           0       -0.796983    5.376281   -0.206516
     42          1           0       -0.775128    4.215542    1.131579
     43          1           0        0.685348    4.502527    0.174257
     44          1           0       -1.940311    3.397911   -0.912772
     45          1           0       -0.657561    2.740913   -2.931476
     46          1           0       -0.646785    4.489500   -2.646575
     47          1           0        0.786868    3.524025   -2.280303
 ---------------------------------------------------------------------

 SCF Done:  E(RCAM-B3LYP) =  -2874.39595302     A.U. after   13 cycles

 Alpha  occ. eigenvalues --  -24.84317 -24.83818 -24.83667 -24.83550 -24.83417
 Alpha  occ. eigenvalues --  -24.83303 -24.83225 -24.83198 -24.83161 -24.83096
 Alpha  occ. eigenvalues --  -24.83039 -24.82982 -24.82901 -24.82804 -24.82792
 Alpha  occ. eigenvalues --  -24.82792 -24.82735 -24.82262 -19.33263 -19.32905
 Alpha  occ. eigenvalues --  -19.24465 -19.24390 -19.23997 -14.53478 -14.53186
 Alpha  occ. eigenvalues --  -14.50637 -10.59756 -10.59235 -10.55481 -10.55402
 Alpha  occ. eigenvalues --  -10.53806 -10.53669 -10.49185 -10.49062 -10.46967
 Alpha  occ. eigenvalues --  -10.46042 -10.45931 -10.32824 -10.26271 -10.26175
 Alpha  occ. eigenvalues --   -1.43396  -1.42778  -1.41928  -1.41825  -1.39281
 Alpha  occ. eigenvalues --   -1.39043  -1.35780  -1.35585  -1.33706  -1.33449
 Alpha  occ. eigenvalues --   -1.33227  -1.33095  -1.32856  -1.32759  -1.32210
 Alpha  occ. eigenvalues --   -1.32090  -1.31752  -1.31511  -1.23666  -1.20793
 Alpha  occ. eigenvalues --   -1.20301  -1.18319  -1.18062  -1.10306  -1.08884
 Alpha  occ. eigenvalues --   -1.06783  -0.94094  -0.93424  -0.89627  -0.86044
 Alpha  occ. eigenvalues --   -0.84557  -0.82232  -0.80752  -0.80503  -0.79263
 Alpha  occ. eigenvalues --   -0.78150  -0.77433  -0.75979  -0.74826  -0.74175
 Alpha  occ. eigenvalues --   -0.73046  -0.72512  -0.71878  -0.70860  -0.70577
 Alpha  occ. eigenvalues --   -0.70318  -0.69633  -0.69253  -0.68674  -0.68256
 Alpha  occ. eigenvalues --   -0.67827  -0.67715  -0.67534  -0.66752  -0.66312
 Alpha  occ. eigenvalues --   -0.65514  -0.64812  -0.64283  -0.62531  -0.60129
 Alpha  occ. eigenvalues --   -0.59904  -0.58664  -0.57845  -0.57307  -0.57225
 Alpha  occ. eigenvalues --   -0.57080  -0.56835  -0.56519  -0.56320  -0.56214
 Alpha  occ. eigenvalues --   -0.56041  -0.55652  -0.55102  -0.55050  -0.54834
 Alpha  occ. eigenvalues --   -0.54711  -0.54413  -0.54192  -0.53996  -0.53772
 Alpha  occ. eigenvalues --   -0.53331  -0.53229  -0.53049  -0.52690  -0.52512
 Alpha  occ. eigenvalues --   -0.52272  -0.52058  -0.51771  -0.51622  -0.51348
 Alpha  occ. eigenvalues --   -0.50919  -0.50781  -0.50560  -0.50523  -0.50254
 Alpha  occ. eigenvalues --   -0.50113  -0.50005  -0.49620  -0.49081  -0.49016
 Alpha  occ. eigenvalues --   -0.48907  -0.48795  -0.48232  -0.46613  -0.46169
 Alpha  occ. eigenvalues --   -0.45717  -0.45696  -0.44786  -0.44628  -0.42755
 Alpha  occ. eigenvalues --   -0.42610  -0.40190  -0.39862  -0.38462  -0.38231
 Alpha  occ. eigenvalues --   -0.36685  -0.36002
 Alpha virt. eigenvalues --   -0.00213   0.00577   0.05378   0.06143   0.06891
 Alpha virt. eigenvalues --    0.08247   0.10956   0.13282   0.13868   0.14196
 Alpha virt. eigenvalues --    0.16207   0.17328   0.17869   0.18891   0.19340

 Mulliken charges:
               1
     1  C   -0.331289
     2  C    0.040059
     3  C   -0.317822
     4  N   -0.585667
     5  C    0.819829
     6  O   -0.480764
     7  N   -0.650629
     8  C    0.761245
     9  F   -0.256665
    10  F   -0.250438
    11  C    0.436906
    12  F   -0.252805
    13  O   -0.508592
    14  C    0.995900
    15  F   -0.241546
    16  F   -0.242545
    17  F   -0.238060
    18  C    0.812723
    19  F   -0.243520
    20  F   -0.244236
    21  F   -0.258718
    22  C    0.849525
    23  O   -0.478736
    24  N   -0.650470
    25  C    0.760750
    26  F   -0.244582
    27  F   -0.264418
    28  C    0.435041
    29  F   -0.253466
    30  O   -0.515535
    31  C    0.998153
    32  F   -0.244864
    33  F   -0.238777
    34  F   -0.240659
    35  C    0.808110
    36  F   -0.233134
    37  F   -0.252059
    38  F   -0.255859
    39  C    0.826287
    40  O   -0.493244
    41  H    0.124239
    42  H    0.116087
    43  H    0.142209
    44  H    0.165517
    45  H    0.113664
    46  H    0.122934
    47  H    0.139923
 Sum of Mulliken charges =   0.00000

 Dipole moment (field-independent basis, Debye):
    X=             -0.0723    Y=              2.9778    Z=             -0.9905  Tot=              3.1391
 Quadrupole moment (field-independent basis, Debye-Ang):
   XX=           -227.8165   YY=           -209.6151   ZZ=           -212.5822
   XY=             -4.6680   XZ=             -1.7915   YZ=              0.8188

 Normal termination of Gaussian 09 at Tue Mar  5 18:30:32 2024.
