 Gaussian 09, Revision D.01,
 Gaussian 09:  ES64L-G09RevD.01 24-Apr-2013

 ----------------------------------------------------------------------
 #p CAM-B3LYP/6-31G(d,p) opt SCRF=(PCM,Solvent=Generic,Read) NoSymm out
 =wfn
 ----------------------------------------------------------------------

 --------------
 Title mXD1_neu
 --------------
 Symbolic Z-matrix:
 Charge =  0 Multiplicity = 1

 SCF Done:  E(RCAM-B3LYP) =  -2025.02572474     A.U. after   14 cycles
 SCF Done:  E(RCAM-B3LYP) =  -2025.04705798     A.U. after   12 cycles
 SCF Done:  E(RCAM-B3LYP) =  -2025.05309374     A.U. after   12 cycles
 SCF Done:  E(RCAM-B3LYP) =  -2025.05216236     A.U. after   13 cycles
 SCF Done:  E(RCAM-B3LYP) =  -2025.05523647     A.U. after   10 cycles
 SCF Done:  E(RCAM-B3LYP) =  -2025.05782381     A.U. after   12 cycles
 SCF Done:  E(RCAM-B3LYP) =  -2025.05913659     A.U. after   12 cycles
 SCF Done:  E(RCAM-B3LYP) =  -2025.06089219     A.U. after   12 cycles
 SCF Done:  E(RCAM-B3LYP) =  -2025.06134105     A.U. after   12 cycles
 SCF Done:  E(RCAM-B3LYP) =  -2025.06182152     A.U. after   12 cycles
 SCF Done:  E(RCAM-B3LYP) =  -2025.06253412     A.U. after   11 cycles
 SCF Done:  E(RCAM-B3LYP) =  -2025.06255180     A.U. after    9 cycles
 SCF Done:  E(RCAM-B3LYP) =  -2025.06256337     A.U. after   10 cycles
 SCF Done:  E(RCAM-B3LYP) =  -2025.06256908     A.U. after    8 cycles
 SCF Done:  E(RCAM-B3LYP) =  -2025.06257085     A.U. after    8 cycles
 SCF Done:  E(RCAM-B3LYP) =  -2025.06257137     A.U. after    8 cycles
 SCF Done:  E(RCAM-B3LYP) =  -2025.06257165     A.U. after    8 cycles
 SCF Done:  E(RCAM-B3LYP) =  -2025.06257174     A.U. after    7 cycles
 SCF Done:  E(RCAM-B3LYP) =  -2025.06257178     A.U. after    7 cycles
 SCF Done:  E(RCAM-B3LYP) =  -2025.06257179     A.U. after    6 cycles
 Optimization completed.
    -- Stationary point found.

                          Input orientation:
 ---------------------------------------------------------------------
 Center     Atomic      Atomic             Coordinates (Angstroms)
 Number     Number       Type             X           Y           Z
 ---------------------------------------------------------------------
      1          9           0       -3.749938    4.166518   -0.031415
      2          6           0       -3.716852    3.028157    0.664402
      3          9           0       -3.870498    3.325350    1.954813
      4          6           0       -4.807020    2.039881    0.183031
      5          9           0       -5.869217    2.078544    0.994082
      6          9           0       -5.193914    2.370337   -1.059278
      7          6           0       -4.070129    0.671008    0.106018
      8          9           0       -4.539213   -0.057176   -0.937209
      9          6           0       -4.265592   -0.156115    1.394514
     10          9           0       -3.828346    0.581498    2.431081
     11          6           0       -3.633078   -1.562106    1.484152
     12          8           0       -4.103786   -2.352162    0.525097
     13          8           0       -2.888438   -1.883342    2.365243
     14          9           0       -5.599327   -0.365429    1.529298
     15          6           0       -2.637258    1.202594   -0.206743
     16          9           0       -2.614849    1.431880   -1.556266
     17          6           0       -1.424548    0.314189    0.087828
     18          9           0       -1.738454   -0.932910   -0.388009
     19          6           0       -0.125855    0.837287   -0.562104
     20          7           0        0.323409    0.098022   -1.586536
     21          6           0        1.553832    0.436475   -2.296399
     22          6           0        2.755306   -0.337816   -1.805214
     23          6           0        3.293415   -0.063190   -0.546903
     24          6           0        4.390332   -0.768865   -0.063216
     25          6           0        4.985763   -0.421876    1.283970
     26          7           0        5.550560   -1.592772    1.947818
     27          6           0        4.948707   -1.773598   -0.855977
     28          6           0        4.420242   -2.054844   -2.107839
     29          6           0        3.326085   -1.338817   -2.584514
     30          8           0        0.377704    1.853685   -0.121873
     31          9           0       -1.252061    0.224043    1.415763
     32          8           0       -2.502324    2.391060    0.487922
     33          1           0       -3.724364   -3.237056    0.657893
     34          1           0       -0.142231   -0.772370   -1.794222
     35          1           0        1.701709    1.508622   -2.156823
     36          1           0        1.389386    0.252531   -3.360522
     37          1           0        2.842766    0.717868    0.060587
     38          1           0        4.224258    0.107924    1.876726
     39          1           0        5.803601    0.293141    1.132059
     40          1           0        6.031896   -1.310744    2.795455
     41          1           0        4.805406   -2.222987    2.229936
     42          1           0        5.795489   -2.329617   -0.470141
     43          1           0        4.861735   -2.836166   -2.718475
     44          1           0        2.915689   -1.560655   -3.565817
 ---------------------------------------------------------------------

 Alpha  occ. eigenvalues --  -24.83311 -24.82584 -24.82394 -24.82391 -24.82108
 Alpha  occ. eigenvalues --  -24.82046 -24.81957 -24.81741 -24.81695 -24.81667
 Alpha  occ. eigenvalues --  -19.31299 -19.30364 -19.25019 -19.21581 -14.45990
 Alpha  occ. eigenvalues --  -14.38658 -10.51692 -10.48044 -10.47868 -10.47251
 Alpha  occ. eigenvalues --  -10.46415 -10.43603 -10.42077 -10.39591 -10.30995
 Alpha  occ. eigenvalues --  -10.28414 -10.27206 -10.26633 -10.26332 -10.26217
 Alpha  occ. eigenvalues --  -10.25858 -10.25553  -1.40360  -1.38475  -1.38160
 Alpha  occ. eigenvalues --   -1.37494  -1.35229  -1.33318  -1.32630  -1.32053
 Alpha  occ. eigenvalues --   -1.31646  -1.31170  -1.22731  -1.21818  -1.14730
 Alpha  occ. eigenvalues --   -1.13736  -1.03382  -0.96917  -0.94415  -0.93779
 Alpha  occ. eigenvalues --   -0.90775  -0.86597  -0.85721  -0.83591  -0.82353
 Alpha  occ. eigenvalues --   -0.78781  -0.77147  -0.75631  -0.74045  -0.73440
 Alpha  occ. eigenvalues --   -0.71082  -0.70321  -0.69920  -0.68381  -0.68148
 Alpha  occ. eigenvalues --   -0.67634  -0.67119  -0.66416  -0.66018  -0.65481
 Alpha  occ. eigenvalues --   -0.64843  -0.64504  -0.63784  -0.63272  -0.62449
 Alpha  occ. eigenvalues --   -0.58518  -0.58275  -0.57132  -0.56812  -0.56341
 Alpha  occ. eigenvalues --   -0.55546  -0.55410  -0.55346  -0.54991  -0.54605
 Alpha  occ. eigenvalues --   -0.54482  -0.54325  -0.53192  -0.52946  -0.52724
 Alpha  occ. eigenvalues --   -0.52600  -0.52145  -0.51811  -0.51449  -0.51107
 Alpha  occ. eigenvalues --   -0.50841  -0.50712  -0.50268  -0.49832  -0.49477
 Alpha  occ. eigenvalues --   -0.49311  -0.49153  -0.48918  -0.47942  -0.47665
 Alpha  occ. eigenvalues --   -0.46418  -0.46081  -0.45547  -0.45381  -0.44452
 Alpha  occ. eigenvalues --   -0.43374  -0.42157  -0.41677  -0.41215  -0.40755
 Alpha  occ. eigenvalues --   -0.39647  -0.37472  -0.34816  -0.33768  -0.30935
 Alpha  occ. eigenvalues --   -0.30162  -0.29155
 Alpha virt. eigenvalues --    0.01871   0.03045   0.04317   0.04680   0.06636
 Alpha virt. eigenvalues --    0.10081   0.11307   0.13514   0.13930   0.14171
 Alpha virt. eigenvalues --    0.15237   0.15653   0.16432   0.18481   0.18658

 Mulliken charges:
               1
     1  F   -0.244455
     2  C    0.780286
     3  F   -0.240729
     4  C    0.491752
     5  F   -0.251999
     6  F   -0.262637
     7  C    0.186231
     8  F   -0.285860
     9  C    0.591969
    10  F   -0.260734
    11  C    0.535608
    12  O   -0.470187
    13  O   -0.433584
    14  F   -0.274458
    15  C    0.482715
    16  F   -0.289770
    17  C    0.556791
    18  F   -0.299600
    19  C    0.558125
    20  N   -0.516277
    21  C   -0.133365
    22  C    0.109373
    23  C   -0.168754
    24  C    0.082718
    25  C   -0.097697
    26  N   -0.621842
    27  C   -0.109365
    28  C   -0.096814
    29  C   -0.137338
    30  O   -0.514258
    31  F   -0.255134
    32  O   -0.471491
    33  H    0.355295
    34  H    0.291790
    35  H    0.161596
    36  H    0.127828
    37  H    0.108015
    38  H    0.094587
    39  H    0.126856
    40  H    0.250783
    41  H    0.248810
    42  H    0.110957
    43  H    0.096503
    44  H    0.087758
 Sum of Mulliken charges =   0.00000

 Dipole moment (field-independent basis, Debye):
    X=              1.0380    Y=             -4.3901    Z=             -2.2111  Tot=              5.0239
 Quadrupole moment (field-independent basis, Debye-Ang):
   XX=           -179.8305   YY=           -172.1058   ZZ=           -168.9328
   XY=              9.7731   XZ=              7.2149   YZ=              1.6324

 Normal termination of Gaussian 09 at Thu Feb  6 02:09:53 2025.
