 Gaussian 09, Revision D.01,
 Gaussian 09:  ES64L-G09RevD.01 24-Apr-2013

 ----------------------------------------------------------------------
 #p CAM-B3LYP/6-31G(d,p) SCRF=(PCM,Solvent=Generic,Read) NoSymm out=wfn
 ----------------------------------------------------------------------

 --------------------
 Title A1374950790_p1
 --------------------
 Symbolic Z-matrix:
 Charge =  1 Multiplicity = 2

                          Input orientation:
 ---------------------------------------------------------------------
 Center     Atomic      Atomic             Coordinates (Angstroms)
 Number     Number       Type             X           Y           Z
 ---------------------------------------------------------------------
      1          8           0        1.722965   -2.919805    1.360704
      2          6           0        0.696289   -2.370875    0.963497
      3          7           0       -0.479737   -2.366097    1.690946
      4         17           0       -0.473723   -3.156935    3.250431
      5          6           0       -1.627003   -1.691081    1.317076
      6          8           0       -2.602902   -1.575847    2.056618
      7          7           0       -1.592394   -1.112682    0.066163
      8          6           0       -2.758316   -0.330620   -0.336637
      9          9           0       -3.877486   -1.059487   -0.065241
     10          9           0       -2.766544   -0.240610   -1.698016
     11          6           0       -2.863220    1.085454    0.289812
     12          9           0       -3.036737    0.967199    1.638159
     13          8           0       -1.613428    1.766443    0.134837
     14          6           0       -1.685172    3.135187    0.437973
     15          9           0       -0.433236    3.603382    0.590705
     16          9           0       -2.270818    3.785502   -0.579171
     17          9           0       -2.365595    3.340078    1.575619
     18          6           0       -4.106985    1.721971   -0.346420
     19          9           0       -3.932881    1.954515   -1.666602
     20          9           0       -4.400533    2.915741    0.222826
     21          9           0       -5.213092    0.958733   -0.213040
     22          6           0       -0.410751   -0.899687   -0.602240
     23          8           0       -0.294479   -0.027854   -1.458138
     24          7           0        0.656437   -1.681847   -0.233382
     25          6           0        1.906777   -1.559255   -0.976025
     26          9           0        1.636973   -1.288882   -2.280971
     27          9           0        2.465376   -2.810791   -1.037682
     28          6           0        2.980968   -0.579781   -0.414337
     29          9           0        2.941401   -0.649553    0.963607
     30          8           0        4.334967   -0.964459   -0.700289
     31          6           0        4.733985   -0.753061   -2.029459
     32          9           0        5.935511   -1.326370   -2.216327
     33          9           0        4.839636    0.562174   -2.268388
     34          9           0        3.856029   -1.299913   -2.878631
     35          6           0        2.610493    0.859695   -0.767540
     36          9           0        2.442195    1.054347   -2.088806
     37          9           0        1.471957    1.235525   -0.137651
     38          9           0        3.573073    1.719548   -0.352626
 ---------------------------------------------------------------------

 SCF Done:  E(UCAM-B3LYP) =  -3215.71428451     A.U. after   32 cycles

 Alpha  occ. eigenvalues -- -101.84165 -24.87487 -24.87181 -24.87080 -24.87018
 Alpha  occ. eigenvalues --  -24.86594 -24.86521 -24.86465 -24.86258 -24.85948
 Alpha  occ. eigenvalues --  -24.85915 -24.85768 -24.85745 -24.85690 -24.85573
 Alpha  occ. eigenvalues --  -24.85564 -24.85339 -24.85179 -24.85057 -19.36990
 Alpha  occ. eigenvalues --  -19.36978 -19.36132 -19.36065 -19.30661 -14.73002
 Alpha  occ. eigenvalues --  -14.60813 -14.60657 -10.62026 -10.61963 -10.58319
 Alpha  occ. eigenvalues --  -10.58200 -10.58161 -10.58041 -10.56923 -10.56921
 Alpha  occ. eigenvalues --  -10.53174 -10.52770 -10.52629  -9.75031  -7.51943
 Alpha  occ. eigenvalues --   -7.50852  -7.50100  -1.45807  -1.45612  -1.44493
 Alpha  occ. eigenvalues --   -1.44405  -1.43201  -1.43096  -1.39248  -1.39203
 Alpha  occ. eigenvalues --   -1.36368  -1.36270  -1.35975  -1.35824  -1.35531
 Alpha  occ. eigenvalues --   -1.35503  -1.35204  -1.34786  -1.34746  -1.34473
 Alpha  occ. eigenvalues --   -1.34419  -1.29101  -1.26414  -1.23633  -1.23429
 Alpha  occ. eigenvalues --   -1.22851  -1.17338  -1.16408  -1.06890  -0.97554
 Alpha  occ. eigenvalues --   -0.97048  -0.93715  -0.91208  -0.87285  -0.85908
 Alpha  occ. eigenvalues --   -0.85149  -0.84569  -0.83673  -0.80785  -0.79091
 Alpha  occ. eigenvalues --   -0.77453  -0.76417  -0.75703  -0.75408  -0.74862
 Alpha  occ. eigenvalues --   -0.73919  -0.73746  -0.73108  -0.72449  -0.72335
 Alpha  occ. eigenvalues --   -0.71811  -0.71412  -0.71222  -0.70914  -0.70619
 Alpha  occ. eigenvalues --   -0.69997  -0.69409  -0.68762  -0.68558  -0.67683
 Alpha  occ. eigenvalues --   -0.65996  -0.64923  -0.64222  -0.63539  -0.62866
 Alpha  occ. eigenvalues --   -0.61717  -0.61186  -0.60335  -0.60109  -0.59973
 Alpha  occ. eigenvalues --   -0.59762  -0.59522  -0.59296  -0.59068  -0.58570
 Alpha  occ. eigenvalues --   -0.58512  -0.58362  -0.57893  -0.57790  -0.57580
 Alpha  occ. eigenvalues --   -0.57429  -0.56978  -0.56564  -0.56302  -0.55578
 Alpha  occ. eigenvalues --   -0.55365  -0.55288  -0.54944  -0.54736  -0.54539
 Alpha  occ. eigenvalues --   -0.54351  -0.54269  -0.54007  -0.53422  -0.53283
 Alpha  occ. eigenvalues --   -0.53098  -0.52990  -0.52391  -0.52315  -0.52071
 Alpha  occ. eigenvalues --   -0.51826  -0.51786  -0.51457  -0.51328  -0.50886
 Alpha  occ. eigenvalues --   -0.50616  -0.50078  -0.49129  -0.48187  -0.47668
 Alpha  occ. eigenvalues --   -0.46088  -0.45007  -0.43503
 Alpha virt. eigenvalues --   -0.16618  -0.09893  -0.07624  -0.00275   0.01298
 Alpha virt. eigenvalues --    0.02403   0.03242   0.05733   0.08924   0.10048
 Alpha virt. eigenvalues --    0.11049   0.12362   0.13957   0.14960   0.15848

  Beta  occ. eigenvalues -- -101.83949 -24.87480 -24.87180 -24.87070 -24.87019
  Beta  occ. eigenvalues --  -24.86594 -24.86517 -24.86461 -24.86258 -24.85948
  Beta  occ. eigenvalues --  -24.85915 -24.85768 -24.85745 -24.85690 -24.85573
  Beta  occ. eigenvalues --  -24.85564 -24.85339 -24.85179 -24.85057 -19.36349
  Beta  occ. eigenvalues --  -19.36342 -19.36131 -19.36064 -19.30683 -14.71842
  Beta  occ. eigenvalues --  -14.60857 -14.60699 -10.62026 -10.61963 -10.58319
  Beta  occ. eigenvalues --  -10.58200 -10.58160 -10.58041 -10.57142 -10.57134
  Beta  occ. eigenvalues --  -10.53170 -10.52772 -10.52630  -9.74825  -7.51861
  Beta  occ. eigenvalues --   -7.50134  -7.49975  -1.45807  -1.45612  -1.44492
  Beta  occ. eigenvalues --   -1.44402  -1.43196  -1.43093  -1.39241  -1.39184
  Beta  occ. eigenvalues --   -1.36356  -1.36268  -1.35967  -1.35824  -1.35526
  Beta  occ. eigenvalues --   -1.35498  -1.35203  -1.34772  -1.34737  -1.34453
  Beta  occ. eigenvalues --   -1.33434  -1.28157  -1.26168  -1.23629  -1.23419
  Beta  occ. eigenvalues --   -1.20907  -1.17175  -1.16242  -1.05553  -0.97496
  Beta  occ. eigenvalues --   -0.96993  -0.93371  -0.91179  -0.86978  -0.85798
  Beta  occ. eigenvalues --   -0.85145  -0.84523  -0.83653  -0.80695  -0.79089
  Beta  occ. eigenvalues --   -0.77351  -0.76326  -0.75639  -0.75309  -0.74549
  Beta  occ. eigenvalues --   -0.73809  -0.73185  -0.72433  -0.72332  -0.71608
  Beta  occ. eigenvalues --   -0.71562  -0.71304  -0.71187  -0.70848  -0.70258
  Beta  occ. eigenvalues --   -0.69972  -0.69251  -0.68539  -0.68477  -0.67623
  Beta  occ. eigenvalues --   -0.65364  -0.64212  -0.63040  -0.62924  -0.62394
  Beta  occ. eigenvalues --   -0.61525  -0.61110  -0.60229  -0.60073  -0.59843
  Beta  occ. eigenvalues --   -0.59601  -0.59421  -0.59261  -0.59047  -0.58508
  Beta  occ. eigenvalues --   -0.58389  -0.58064  -0.57851  -0.57762  -0.57483
  Beta  occ. eigenvalues --   -0.57141  -0.56729  -0.56385  -0.55742  -0.55448
  Beta  occ. eigenvalues --   -0.55248  -0.54917  -0.54745  -0.54502  -0.54317
  Beta  occ. eigenvalues --   -0.54163  -0.53917  -0.53496  -0.53287  -0.53172
  Beta  occ. eigenvalues --   -0.53045  -0.52712  -0.52348  -0.52182  -0.51859
  Beta  occ. eigenvalues --   -0.51779  -0.51486  -0.51317  -0.50898  -0.49828
  Beta  occ. eigenvalues --   -0.49328  -0.48624  -0.47828  -0.47449  -0.45533
  Beta  occ. eigenvalues --   -0.44486  -0.43313
  Beta virt. eigenvalues --   -0.31146  -0.15508  -0.08636  -0.06427   0.00248
  Beta virt. eigenvalues --    0.01342   0.02417   0.03424   0.05763   0.08983
  Beta virt. eigenvalues --    0.10172   0.11090   0.12541   0.13982   0.14962

 Mulliken charges and spin densities:
               1          2
     1  O   -0.342291   0.258221
     2  C    0.914695  -0.122613
     3  N   -0.582506   0.481961
     4  Cl   0.608471   0.277774
     5  C    0.899319  -0.118071
     6  O   -0.341452   0.250186
     7  N   -0.647735  -0.011760
     8  C    0.766799  -0.000457
     9  F   -0.243281   0.001489
    10  F   -0.237250   0.000187
    11  C    0.438637  -0.000232
    12  F   -0.253747   0.000644
    13  O   -0.511063   0.000171
    14  C    1.002253   0.000001
    15  F   -0.234793   0.000002
    16  F   -0.237070   0.000000
    17  F   -0.239649   0.000007
    18  C    0.822592  -0.000159
    19  F   -0.240410   0.000002
    20  F   -0.251859   0.000003
    21  F   -0.239730   0.000053
    22  C    0.886637   0.001767
    23  O   -0.427126  -0.008027
    24  N   -0.638247  -0.013428
    25  C    0.763800  -0.000325
    26  F   -0.231023   0.000026
    27  F   -0.256993   0.000928
    28  C    0.439420  -0.000635
    29  F   -0.273134   0.002098
    30  O   -0.487580   0.000117
    31  C    0.982509  -0.000006
    32  F   -0.231047  -0.000006
    33  F   -0.235105   0.000001
    34  F   -0.233028   0.000004
    35  C    0.826727   0.000005
    36  F   -0.237235   0.000035
    37  F   -0.249119   0.000030
    38  F   -0.249385   0.000009
 Sum of Mulliken charges =   1.00000   1.00000

 Dipole moment (field-independent basis, Debye):
    X=             -2.0636    Y=            -11.2783    Z=              8.4163  Tot=             14.2230
 Quadrupole moment (field-independent basis, Debye-Ang):
   XX=           -199.1212   YY=           -168.9682   ZZ=           -177.4365
   XY=              6.6807   XZ=             -6.1894   YZ=            -23.0682

 Normal termination of Gaussian 09 at Sun Mar  3 18:28:21 2024.
