 Gaussian 09, Revision D.01,
 Gaussian 09:  ES64L-G09RevD.01 24-Apr-2013

 ----------------------------------------------------------------------
 #p CAM-B3LYP/6-31G(d,p) SCRF=(PCM,Solvent=Generic,Read) NoSymm out=wfn
 ----------------------------------------------------------------------

 -------------------
 Title A1374950790_0
 -------------------
 Symbolic Z-matrix:
 Charge =  0 Multiplicity = 1

                          Input orientation:
 ---------------------------------------------------------------------
 Center     Atomic      Atomic             Coordinates (Angstroms)
 Number     Number       Type             X           Y           Z
 ---------------------------------------------------------------------
      1          8           0       -2.171762   -2.770698   -1.356742
      2          6           0       -1.019512   -2.357147   -1.249823
      3          7           0        0.055312   -3.181312   -0.990087
      4         17           0       -0.187740   -4.906373   -1.096676
      5          6           0        1.326047   -2.716584   -0.707446
      6          8           0        2.316503   -3.445557   -0.741355
      7          7           0        1.400706   -1.365541   -0.407657
      8          6           0        2.713501   -0.903277    0.057597
      9          9           0        3.573050   -0.951950   -0.996295
     10          9           0        3.155409   -1.835134    0.957106
     11          6           0        2.844419    0.472173    0.764015
     12          9           0        2.780470    1.470244   -0.165324
     13          8           0        1.736939    0.632883    1.663780
     14          6           0        1.832030    1.802178    2.437760
     15          9           0        2.270680    2.844707    1.719089
     16          9           0        2.660723    1.571671    3.469473
     17          9           0        0.609401    2.085852    2.923838
     18          6           0        4.241851    0.491525    1.400938
     19          9           0        4.333799   -0.363609    2.444659
     20          9           0        4.542916    1.720804    1.886403
     21          9           0        5.219506    0.176235    0.524734
     22          6           0        0.466488   -0.488720   -0.894767
     23          8           0        0.641713    0.723037   -0.885316
     24          7           0       -0.709421   -1.018902   -1.371841
     25          6           0       -1.777272   -0.124497   -1.808211
     26          9           0       -2.382572   -0.726527   -2.884957
     27          9           0       -1.247575    1.003555   -2.368250
     28          6           0       -2.886376    0.287480   -0.798473
     29          9           0       -3.461916   -0.832294   -0.271980
     30          8           0       -3.917952    0.954897   -1.544704
     31          6           0       -4.918653    1.516043   -0.738446
     32          9           0       -4.477701    2.687787   -0.250951
     33          9           0       -5.256434    0.696364    0.268386
     34          9           0       -6.004555    1.747337   -1.498095
     35          6           0       -2.233918    1.088356    0.330200
     36          9           0       -1.666535    2.229290   -0.105674
     37          9           0       -3.123226    1.427627    1.291486
     38          9           0       -1.278343    0.358074    0.957992
 ---------------------------------------------------------------------

 SCF Done:  E(RCAM-B3LYP) =  -3216.05396285     A.U. after   13 cycles

 Alpha  occ. eigenvalues -- -101.70498 -24.84754 -24.83938 -24.83878 -24.83842
 Alpha  occ. eigenvalues --  -24.83752 -24.83726 -24.83701 -24.83613 -24.83602
 Alpha  occ. eigenvalues --  -24.83543 -24.83507 -24.83451 -24.83310 -24.83230
 Alpha  occ. eigenvalues --  -24.83102 -24.83065 -24.82611 -24.82404 -19.33408
 Alpha  occ. eigenvalues --  -19.33216 -19.25854 -19.25593 -19.25095 -14.56276
 Alpha  occ. eigenvalues --  -14.54506 -14.54402 -10.59830 -10.59760 -10.56157
 Alpha  occ. eigenvalues --  -10.55711 -10.54306 -10.54189 -10.49596 -10.49595
 Alpha  occ. eigenvalues --  -10.47913 -10.47818 -10.47724  -9.61691  -7.38681
 Alpha  occ. eigenvalues --   -7.36996  -7.36988  -1.43547  -1.43437  -1.42448
 Alpha  occ. eigenvalues --   -1.42024  -1.39604  -1.39176  -1.36042  -1.35484
 Alpha  occ. eigenvalues --   -1.33898  -1.33688  -1.33682  -1.33536  -1.33425
 Alpha  occ. eigenvalues --   -1.33161  -1.32859  -1.32546  -1.32223  -1.31604
 Alpha  occ. eigenvalues --   -1.24782  -1.20896  -1.20692  -1.19500  -1.19170
 Alpha  occ. eigenvalues --   -1.11426  -1.09788  -1.09570  -0.95761  -0.93760
 Alpha  occ. eigenvalues --   -0.93515  -0.86580  -0.85193  -0.83149  -0.82318
 Alpha  occ. eigenvalues --   -0.80321  -0.79663  -0.77325  -0.76728  -0.75527
 Alpha  occ. eigenvalues --   -0.74113  -0.73225  -0.72525  -0.71860  -0.70944
 Alpha  occ. eigenvalues --   -0.70715  -0.70420  -0.69976  -0.69379  -0.69202
 Alpha  occ. eigenvalues --   -0.68864  -0.68022  -0.67913  -0.67259  -0.66577
 Alpha  occ. eigenvalues --   -0.66320  -0.65703  -0.64696  -0.63546  -0.60916
 Alpha  occ. eigenvalues --   -0.60571  -0.60337  -0.58284  -0.58216  -0.57750
 Alpha  occ. eigenvalues --   -0.57453  -0.57204  -0.57109  -0.56946  -0.56486
 Alpha  occ. eigenvalues --   -0.56245  -0.56006  -0.55879  -0.55412  -0.55331
 Alpha  occ. eigenvalues --   -0.55242  -0.54779  -0.54638  -0.54217  -0.54067
 Alpha  occ. eigenvalues --   -0.54029  -0.53496  -0.53371  -0.53192  -0.52685
 Alpha  occ. eigenvalues --   -0.52504  -0.52372  -0.52025  -0.51834  -0.51303
 Alpha  occ. eigenvalues --   -0.51191  -0.51143  -0.50808  -0.50623  -0.50484
 Alpha  occ. eigenvalues --   -0.50146  -0.49843  -0.49493  -0.49351  -0.49043
 Alpha  occ. eigenvalues --   -0.48925  -0.46579  -0.46377  -0.45692  -0.44966
 Alpha  occ. eigenvalues --   -0.44604  -0.43653  -0.41774  -0.40717  -0.40422
 Alpha  occ. eigenvalues --   -0.39473  -0.37717  -0.37010
 Alpha virt. eigenvalues --   -0.05370  -0.00945  -0.00219   0.04984   0.06435
 Alpha virt. eigenvalues --    0.07109   0.07280   0.09356   0.13745   0.14707
 Alpha virt. eigenvalues --    0.16914   0.17352   0.18731   0.19054   0.19841

 Mulliken charges:
               1
     1  O   -0.457889
     2  C    0.850982
     3  N   -0.682724
     4  Cl   0.261856
     5  C    0.851366
     6  O   -0.450409
     7  N   -0.657027
     8  C    0.803305
     9  F   -0.252018
    10  F   -0.267585
    11  C    0.419256
    12  F   -0.254639
    13  O   -0.519932
    14  C    0.996354
    15  F   -0.236406
    16  F   -0.243845
    17  F   -0.239307
    18  C    0.816941
    19  F   -0.245239
    20  F   -0.256414
    21  F   -0.240745
    22  C    0.862096
    23  O   -0.482755
    24  N   -0.648607
    25  C    0.750450
    26  F   -0.262228
    27  F   -0.241256
    28  C    0.438041
    29  F   -0.252200
    30  O   -0.510308
    31  C    0.995816
    32  F   -0.244754
    33  F   -0.242242
    34  F   -0.236717
    35  C    0.815056
    36  F   -0.231764
    37  F   -0.250412
    38  F   -0.254092
 Sum of Mulliken charges =   0.00000

 Dipole moment (field-independent basis, Debye):
    X=             -0.4188    Y=             -0.7316    Z=              0.3795  Tot=              0.9244
 Quadrupole moment (field-independent basis, Debye-Ang):
   XX=           -218.0499   YY=           -205.8391   ZZ=           -205.7336
   XY=              1.1714   XZ=             -3.2158   YZ=              1.2045

 Normal termination of Gaussian 09 at Tue Mar  5 18:34:46 2024.
