 Gaussian 09, Revision D.01,
 Gaussian 09:  ES64L-G09RevD.01 24-Apr-2013

 ----------------------------------------------------------------------
 #p CAM-B3LYP/6-31G(d,p) SCRF=(PCM,Solvent=Generic,Read) NoSymm out=wfn
 ----------------------------------------------------------------------

 ------------------
 Title A904173281_0
 ------------------
 Symbolic Z-matrix:
 Charge =  0 Multiplicity = 1

                          Input orientation:
 ---------------------------------------------------------------------
 Center     Atomic      Atomic             Coordinates (Angstroms)
 Number     Number       Type             X           Y           Z
 ---------------------------------------------------------------------
      1          8           0        3.726837   -0.303212   -1.620274
      2          6           0        2.608592   -0.425022   -1.121127
      3          7           0        2.369866   -0.177338    0.209592
      4          6           0        3.484561    0.207005    1.040477
      5          9           0        4.015807   -0.917495    1.591418
      6          6           0        1.135063   -0.305752    0.801145
      7          8           0        0.929083    0.093641    1.946460
      8          7           0        0.144284   -0.856453    0.024434
      9          6           0       -1.184335   -0.993280    0.606312
     10          9           0       -1.059361   -1.407184    1.900729
     11          9           0       -1.815346   -2.041057    0.002803
     12          6           0       -2.069291    0.278985    0.542832
     13          9           0       -2.330146    0.581993   -0.762826
     14          8           0       -1.334312    1.401525    1.045289
     15          6           0       -2.130150    2.537391    1.255763
     16          9           0       -2.954241    2.748827    0.218554
     17          9           0       -1.318979    3.603683    1.386936
     18          9           0       -2.833667    2.386874    2.388320
     19          6           0       -3.372470   -0.094799    1.263734
     20          9           0       -4.298281    0.889333    1.153452
     21          9           0       -3.178270   -0.294605    2.586437
     22          9           0       -3.950295   -1.209222    0.766103
     23          6           0        0.244500   -0.912685   -1.343796
     24          8           0       -0.740314   -1.047570   -2.067509
     25          7           0        1.505866   -0.762233   -1.868876
     26          6           0        1.689516   -1.010333   -3.277912
     27          9           0        1.932232   -2.337502   -3.451062
     28          1           0        4.270408    0.706345    0.466490
     29          1           0        3.175028    0.867705    1.855379
     30          1           0        0.797532   -0.752530   -3.856059
     31          1           0        2.540282   -0.455036   -3.683217
 ---------------------------------------------------------------------

 SCF Done:  E(RCAM-B3LYP) =  -1908.22734672     A.U. after   13 cycles

 Alpha  occ. eigenvalues --  -24.83821 -24.83685 -24.83608 -24.83441 -24.83115
 Alpha  occ. eigenvalues --  -24.82993 -24.82974 -24.82929 -24.82814 -24.77301
 Alpha  occ. eigenvalues --  -24.77283 -19.33215 -19.24328 -19.24247 -19.24083
 Alpha  occ. eigenvalues --  -14.53006 -14.51058 -14.51029 -10.59763 -10.55503
 Alpha  occ. eigenvalues --  -10.53484 -10.49130 -10.46280 -10.46243 -10.45543
 Alpha  occ. eigenvalues --  -10.39203 -10.39178  -1.43413  -1.41848  -1.39164
 Alpha  occ. eigenvalues --   -1.35782  -1.33745  -1.33461  -1.32879  -1.32225
 Alpha  occ. eigenvalues --   -1.31676  -1.30090  -1.29997  -1.22901  -1.20755
 Alpha  occ. eigenvalues --   -1.17842  -1.17722  -1.09842  -1.07757  -1.06489
 Alpha  occ. eigenvalues --   -0.93664  -0.86342  -0.83814  -0.83638  -0.82168
 Alpha  occ. eigenvalues --   -0.78511  -0.76220  -0.75786  -0.74712  -0.73184
 Alpha  occ. eigenvalues --   -0.72335  -0.70662  -0.70035  -0.68683  -0.68296
 Alpha  occ. eigenvalues --   -0.67307  -0.66619  -0.64890  -0.64050  -0.62979
 Alpha  occ. eigenvalues --   -0.61409  -0.60131  -0.59736  -0.58384  -0.58209
 Alpha  occ. eigenvalues --   -0.57406  -0.57227  -0.57139  -0.56308  -0.56119
 Alpha  occ. eigenvalues --   -0.55992  -0.55681  -0.55007  -0.54233  -0.53994
 Alpha  occ. eigenvalues --   -0.53694  -0.53259  -0.52892  -0.52754  -0.52303
 Alpha  occ. eigenvalues --   -0.51853  -0.50903  -0.50827  -0.50548  -0.50120
 Alpha  occ. eigenvalues --   -0.49991  -0.49040  -0.48899  -0.46758  -0.46142
 Alpha  occ. eigenvalues --   -0.45898  -0.44798  -0.42669  -0.42512  -0.40282
 Alpha  occ. eigenvalues --   -0.39920  -0.38812  -0.38446  -0.38022  -0.36145
 Alpha virt. eigenvalues --    0.00476   0.00895   0.05624   0.08275   0.10818
 Alpha virt. eigenvalues --    0.13730   0.15361   0.17032   0.17206   0.18077
 Alpha virt. eigenvalues --    0.18869   0.19633   0.20152   0.20571   0.21175

 Mulliken charges:
               1
     1  O   -0.509242
     2  C    0.850699
     3  N   -0.597685
     4  C    0.253409
     5  F   -0.300055
     6  C    0.854872
     7  O   -0.495764
     8  N   -0.647009
     9  C    0.763346
    10  F   -0.253487
    11  F   -0.256072
    12  C    0.436853
    13  F   -0.255716
    14  O   -0.507119
    15  C    0.996151
    16  F   -0.242730
    17  F   -0.240281
    18  F   -0.242012
    19  C    0.813432
    20  F   -0.259749
    21  F   -0.245453
    22  F   -0.243156
    23  C    0.841441
    24  O   -0.494896
    25  N   -0.596613
    26  C    0.253548
    27  F   -0.299935
    28  H    0.155428
    29  H    0.156103
    30  H    0.156385
    31  H    0.155307
 Sum of Mulliken charges =   0.00000

 Dipole moment (field-independent basis, Debye):
    X=              0.9323    Y=              2.8432    Z=             -1.1996  Tot=              3.2236
 Quadrupole moment (field-independent basis, Debye-Ang):
   XX=           -153.1445   YY=           -145.4963   ZZ=           -147.4160
   XY=              6.4384   XZ=             -0.3847   YZ=             -3.8959

 Normal termination of Gaussian 09 at Sun Mar  3 17:56:29 2024.
