 Gaussian 09, Revision D.01,
 Gaussian 09:  ES64L-G09RevD.01 24-Apr-2013

 ----------------------------------------------------------------------
 #p CAM-B3LYP/6-31G(d,p) SCRF=(PCM,Solvent=Generic,Read) NoSymm out=wfn
 ----------------------------------------------------------------------

 -------------------
 Title A904173281_p1
 -------------------
 Symbolic Z-matrix:
 Charge =  1 Multiplicity = 2

                          Input orientation:
 ---------------------------------------------------------------------
 Center     Atomic      Atomic             Coordinates (Angstroms)
 Number     Number       Type             X           Y           Z
 ---------------------------------------------------------------------
      1          8           0        3.726837   -0.303212   -1.620274
      2          6           0        2.608592   -0.425022   -1.121127
      3          7           0        2.369866   -0.177338    0.209592
      4          6           0        3.484561    0.207005    1.040477
      5          9           0        4.015807   -0.917495    1.591418
      6          6           0        1.135063   -0.305752    0.801145
      7          8           0        0.929083    0.093641    1.946460
      8          7           0        0.144284   -0.856453    0.024434
      9          6           0       -1.184335   -0.993280    0.606312
     10          9           0       -1.059361   -1.407184    1.900729
     11          9           0       -1.815346   -2.041057    0.002803
     12          6           0       -2.069291    0.278985    0.542832
     13          9           0       -2.330146    0.581993   -0.762826
     14          8           0       -1.334312    1.401525    1.045289
     15          6           0       -2.130150    2.537391    1.255763
     16          9           0       -2.954241    2.748827    0.218554
     17          9           0       -1.318979    3.603683    1.386936
     18          9           0       -2.833667    2.386874    2.388320
     19          6           0       -3.372470   -0.094799    1.263734
     20          9           0       -4.298281    0.889333    1.153452
     21          9           0       -3.178270   -0.294605    2.586437
     22          9           0       -3.950295   -1.209222    0.766103
     23          6           0        0.244500   -0.912685   -1.343796
     24          8           0       -0.740314   -1.047570   -2.067509
     25          7           0        1.505866   -0.762233   -1.868876
     26          6           0        1.689516   -1.010333   -3.277912
     27          9           0        1.932232   -2.337502   -3.451062
     28          1           0        4.270408    0.706345    0.466490
     29          1           0        3.175028    0.867705    1.855379
     30          1           0        0.797532   -0.752530   -3.856059
     31          1           0        2.540282   -0.455036   -3.683217
 ---------------------------------------------------------------------

 SCF Done:  E(UCAM-B3LYP) =  -1907.88706618     A.U. after   47 cycles

 Alpha  occ. eigenvalues --  -24.88164 -24.87953 -24.86679 -24.86177 -24.86003
 Alpha  occ. eigenvalues --  -24.85914 -24.85879 -24.85602 -24.85174 -24.82762
 Alpha  occ. eigenvalues --  -24.82556 -19.40231 -19.37206 -19.36669 -19.35902
 Alpha  occ. eigenvalues --  -14.61302 -14.60742 -14.60369 -10.62373 -10.58734
 Alpha  occ. eigenvalues --  -10.58249 -10.56235 -10.55704 -10.55167 -10.52965
 Alpha  occ. eigenvalues --  -10.45652 -10.45413  -1.45888  -1.44787  -1.43596
 Alpha  occ. eigenvalues --   -1.39440  -1.36997  -1.36076  -1.35812  -1.35761
 Alpha  occ. eigenvalues --   -1.35347  -1.35015  -1.34592  -1.32746  -1.30150
 Alpha  occ. eigenvalues --   -1.28316  -1.24131  -1.20504  -1.16864  -1.15689
 Alpha  occ. eigenvalues --   -0.97951  -0.92818  -0.91995  -0.91790  -0.85554
 Alpha  occ. eigenvalues --   -0.84418  -0.83903  -0.83461  -0.79801  -0.76875
 Alpha  occ. eigenvalues --   -0.75917  -0.74231  -0.73319  -0.72283  -0.72058
 Alpha  occ. eigenvalues --   -0.71368  -0.70450  -0.70060  -0.69578  -0.69126
 Alpha  occ. eigenvalues --   -0.68337  -0.67650  -0.66200  -0.65912  -0.64468
 Alpha  occ. eigenvalues --   -0.64195  -0.63253  -0.62669  -0.62225  -0.62136
 Alpha  occ. eigenvalues --   -0.61137  -0.60283  -0.59979  -0.59615  -0.59320
 Alpha  occ. eigenvalues --   -0.58594  -0.58115  -0.57392  -0.56760  -0.56297
 Alpha  occ. eigenvalues --   -0.55702  -0.55412  -0.54755  -0.54653  -0.53565
 Alpha  occ. eigenvalues --   -0.53312  -0.52702  -0.52605  -0.52224  -0.51502
 Alpha  occ. eigenvalues --   -0.51195  -0.50995  -0.50167  -0.49303  -0.49060
 Alpha  occ. eigenvalues --   -0.48327  -0.47948  -0.47387  -0.47235  -0.46802
 Alpha virt. eigenvalues --   -0.09205  -0.07909   0.01139   0.01327   0.05123
 Alpha virt. eigenvalues --    0.08643   0.09148   0.10664   0.12448   0.12614
 Alpha virt. eigenvalues --    0.13592   0.14428   0.15175   0.15395   0.15777

  Beta  occ. eigenvalues --  -24.88130 -24.87929 -24.86671 -24.86176 -24.86003
  Beta  occ. eigenvalues --  -24.85914 -24.85879 -24.85602 -24.85174 -24.82736
  Beta  occ. eigenvalues --  -24.82534 -19.39044 -19.36664 -19.36387 -19.35252
  Beta  occ. eigenvalues --  -14.61267 -14.60646 -14.60292 -10.62373 -10.58737
  Beta  occ. eigenvalues --  -10.58249 -10.56336 -10.55786 -10.55233 -10.52967
  Beta  occ. eigenvalues --  -10.45623 -10.45386  -1.45884  -1.44762  -1.43572
  Beta  occ. eigenvalues --   -1.39424  -1.36934  -1.36076  -1.35760  -1.35648
  Beta  occ. eigenvalues --   -1.35278  -1.35010  -1.34592  -1.31926  -1.28514
  Beta  occ. eigenvalues --   -1.27189  -1.24113  -1.19276  -1.16376  -1.15199
  Beta  occ. eigenvalues --   -0.97921  -0.92723  -0.91536  -0.91312  -0.85485
  Beta  occ. eigenvalues --   -0.84022  -0.83263  -0.83056  -0.79759  -0.76833
  Beta  occ. eigenvalues --   -0.75909  -0.74180  -0.73294  -0.72163  -0.72041
  Beta  occ. eigenvalues --   -0.71339  -0.70400  -0.69855  -0.69539  -0.69060
  Beta  occ. eigenvalues --   -0.68139  -0.66566  -0.65960  -0.65297  -0.64054
  Beta  occ. eigenvalues --   -0.63740  -0.63213  -0.62234  -0.61812  -0.61693
  Beta  occ. eigenvalues --   -0.60898  -0.60245  -0.59670  -0.59529  -0.59260
  Beta  occ. eigenvalues --   -0.58520  -0.58097  -0.57250  -0.56702  -0.55653
  Beta  occ. eigenvalues --   -0.55603  -0.54777  -0.54610  -0.53553  -0.53264
  Beta  occ. eigenvalues --   -0.52591  -0.52216  -0.52033  -0.51627  -0.51443
  Beta  occ. eigenvalues --   -0.50161  -0.48861  -0.48246  -0.47825  -0.47582
  Beta  occ. eigenvalues --   -0.46937  -0.46569  -0.44419  -0.44227
  Beta virt. eigenvalues --   -0.31836  -0.08910  -0.07693   0.01163   0.01369
  Beta virt. eigenvalues --    0.05192   0.08708   0.09262   0.10857   0.12504
  Beta virt. eigenvalues --    0.12800   0.13649   0.14575   0.15292   0.15484

 Mulliken charges and spin densities:
               1          2
     1  O   -0.310320   0.446038
     2  C    0.962482  -0.058966
     3  N   -0.595846   0.048307
     4  C    0.232077   0.009362
     5  F   -0.269728   0.007900
     6  C    0.940042  -0.049382
     7  O   -0.347947   0.306265
     8  N   -0.645967   0.018108
     9  C    0.753682  -0.003519
    10  F   -0.236622   0.008058
    11  F   -0.237851   0.005754
    12  C    0.442888  -0.000056
    13  F   -0.249715   0.001779
    14  O   -0.517057   0.001398
    15  C    1.003524  -0.000038
    16  F   -0.237721   0.000078
    17  F   -0.235768   0.000001
    18  F   -0.236093  -0.000002
    19  C    0.823428  -0.000006
    20  F   -0.251831  -0.000021
    21  F   -0.240706   0.000021
    22  F   -0.238145  -0.000004
    23  C    0.918670  -0.040644
    24  O   -0.367892   0.242791
    25  N   -0.596288   0.038454
    26  C    0.233984   0.008820
    27  F   -0.271644   0.006598
    28  H    0.193387   0.001860
    29  H    0.196589  -0.000245
    30  H    0.196116  -0.000118
    31  H    0.190274   0.001407
 Sum of Mulliken charges =   1.00000   1.00000

 Dipole moment (field-independent basis, Debye):
    X=              8.2121    Y=              0.8038    Z=             -3.9432  Tot=              9.1452
 Quadrupole moment (field-independent basis, Debye-Ang):
   XX=           -119.3305   YY=           -139.3150   ZZ=           -126.6468
   XY=              4.6668   XZ=             -7.1269   YZ=              0.8158

 Normal termination of Gaussian 09 at Sun Mar  3 17:57:50 2024.
