 Gaussian 09, Revision D.01,
 Gaussian 09:  ES64L-G09RevD.01 24-Apr-2013

 ----------------------------------------------------------------------
 #p CAM-B3LYP/6-31G(d,p) opt SCRF=(PCM,Solvent=Generic,Read) NoSymm out
 =wfn
 ----------------------------------------------------------------------

 ---------------
 Title FFKM0_pos
 ---------------
 Symbolic Z-matrix:
 Charge =  1 Multiplicity = 2

 SCF Done:  E(UCAM-B3LYP) =  -1463.03489078     A.U. after   25 cycles
 SCF Done:  E(UCAM-B3LYP) =  -1463.07193034     A.U. after   22 cycles
 SCF Done:  E(UCAM-B3LYP) =  -1463.06764100     A.U. after   20 cycles
 SCF Done:  E(UCAM-B3LYP) =  -1463.07999388     A.U. after   18 cycles
 SCF Done:  E(UCAM-B3LYP) =  -1463.09763030     A.U. after   18 cycles
 SCF Done:  E(UCAM-B3LYP) =  -1463.10109531     A.U. after   16 cycles
 SCF Done:  E(UCAM-B3LYP) =  -1463.10148982     A.U. after   15 cycles
 SCF Done:  E(UCAM-B3LYP) =  -1463.10353563     A.U. after   15 cycles
 SCF Done:  E(UCAM-B3LYP) =  -1463.10486153     A.U. after   14 cycles
 SCF Done:  E(UCAM-B3LYP) =  -1463.10596032     A.U. after   15 cycles
 SCF Done:  E(UCAM-B3LYP) =  -1463.10674171     A.U. after   10 cycles
 SCF Done:  E(UCAM-B3LYP) =  -1463.10674271     A.U. after    9 cycles
 SCF Done:  E(UCAM-B3LYP) =  -1463.10674305     A.U. after   10 cycles
 SCF Done:  E(UCAM-B3LYP) =  -1463.10674339     A.U. after   10 cycles
 SCF Done:  E(UCAM-B3LYP) =  -1463.10674383     A.U. after   11 cycles
 SCF Done:  E(UCAM-B3LYP) =  -1463.10674386     A.U. after   10 cycles
 SCF Done:  E(UCAM-B3LYP) =  -1463.10674425     A.U. after   10 cycles
 SCF Done:  E(UCAM-B3LYP) =  -1463.10674434     A.U. after    9 cycles
 SCF Done:  E(UCAM-B3LYP) =  -1463.10674435     A.U. after    9 cycles
 SCF Done:  E(UCAM-B3LYP) =  -1463.10674436     A.U. after    8 cycles
 Optimization completed.
    -- Stationary point found.

                          Input orientation:
 ---------------------------------------------------------------------
 Center     Atomic      Atomic             Coordinates (Angstroms)
 Number     Number       Type             X           Y           Z
 ---------------------------------------------------------------------
      1          9           0        2.361543   -0.213355    2.079629
      2          6           0        2.439840   -0.744744    0.872129
      3          9           0        3.493835   -0.262548    0.244929
      4          9           0        2.507887   -2.051166    0.944229
      5          8           0        1.272845   -0.462517    0.137725
      6          6           0        0.768048    0.789815    0.154345
      7          9           0        1.678693    1.736150   -0.074224
      8          9           0        0.106256    1.090892    1.266943
      9          6           0       -0.238042    0.893117   -1.042168
     10          9           0        0.270864    0.686642   -2.204305
     11          9           0       -1.052629    1.882821   -0.988933
     12          6           0       -1.487586   -0.675358   -0.989355
     13          9           0       -0.723387   -1.659325   -1.290253
     14          9           0       -2.279802   -0.312842   -1.936044
     15          6           0       -2.143379   -0.724387    0.435628
     16          9           0       -3.188652   -1.519823    0.319237
     17          9           0       -2.517351    0.488612    0.787125
     18          9           0       -1.268983   -1.221341    1.283364
 ---------------------------------------------------------------------

 Alpha  occ. eigenvalues --  -24.96866 -24.96865 -24.96706 -24.96687 -24.90666
 Alpha  occ. eigenvalues --  -24.90665 -24.90659 -24.90345 -24.89920 -24.87713
 Alpha  occ. eigenvalues --  -24.87567 -24.87291 -19.38216 -10.63846 -10.63720
 Alpha  occ. eigenvalues --  -10.62511 -10.62493 -10.62071  -1.54771  -1.53333
 Alpha  occ. eigenvalues --   -1.50209  -1.48921  -1.47525  -1.47163  -1.46820
 Alpha  occ. eigenvalues --   -1.41157  -1.41117  -1.40164  -1.38383  -1.37984
 Alpha  occ. eigenvalues --   -1.27909  -0.99463  -0.96323  -0.89527  -0.86823
 Alpha  occ. eigenvalues --   -0.84149  -0.81429  -0.81191  -0.80673  -0.79923
 Alpha  occ. eigenvalues --   -0.79686  -0.77876  -0.76306  -0.76118  -0.75567
 Alpha  occ. eigenvalues --   -0.74274  -0.73542  -0.71473  -0.68392  -0.67898
 Alpha  occ. eigenvalues --   -0.67556  -0.66299  -0.65761  -0.64400  -0.63919
 Alpha  occ. eigenvalues --   -0.63096  -0.62847  -0.62035  -0.60716  -0.60314
 Alpha  occ. eigenvalues --   -0.59957  -0.59539  -0.59312  -0.57835  -0.57452
 Alpha  occ. eigenvalues --   -0.57106  -0.56916  -0.56499  -0.55321  -0.54065
 Alpha  occ. eigenvalues --   -0.53913  -0.51351  -0.47389
 Alpha virt. eigenvalues --   -0.09551   0.05070   0.05941   0.08367   0.11541
 Alpha virt. eigenvalues --    0.14637   0.16359   0.17418   0.17858   0.18720
 Alpha virt. eigenvalues --    0.19314   0.21432   0.21666   0.22443   0.25425

  Beta  occ. eigenvalues --  -24.96509 -24.96506 -24.96367 -24.96356 -24.90666
  Beta  occ. eigenvalues --  -24.90644 -24.90543 -24.90226 -24.89910 -24.87713
  Beta  occ. eigenvalues --  -24.87566 -24.87291 -19.38209 -10.63847 -10.63603
  Beta  occ. eigenvalues --  -10.62031 -10.62013 -10.61955  -1.54021  -1.52646
  Beta  occ. eigenvalues --   -1.50050  -1.48877  -1.46862  -1.46747  -1.46296
  Beta  occ. eigenvalues --   -1.41131  -1.40916  -1.40015  -1.38381  -1.37982
  Beta  occ. eigenvalues --   -1.27868  -0.98193  -0.95305  -0.88736  -0.85955
  Beta  occ. eigenvalues --   -0.83473  -0.80998  -0.80218  -0.79803  -0.79449
  Beta  occ. eigenvalues --   -0.79297  -0.77545  -0.76003  -0.75951  -0.75327
  Beta  occ. eigenvalues --   -0.74226  -0.73385  -0.69719  -0.67748  -0.67082
  Beta  occ. eigenvalues --   -0.66407  -0.64793  -0.64474  -0.64031  -0.63233
  Beta  occ. eigenvalues --   -0.62751  -0.62705  -0.61791  -0.60660  -0.60029
  Beta  occ. eigenvalues --   -0.59669  -0.59350  -0.59189  -0.57712  -0.57265
  Beta  occ. eigenvalues --   -0.56881  -0.56461  -0.56156  -0.54924  -0.54063
  Beta  occ. eigenvalues --   -0.53468  -0.51194
  Beta virt. eigenvalues --   -0.27100  -0.04465   0.05923   0.06611   0.08875
  Beta virt. eigenvalues --    0.12490   0.15477   0.16894   0.17917   0.18104
  Beta virt. eigenvalues --    0.19187   0.19856   0.21465   0.22017   0.22754

 Mulliken charges and spin densities:
               1          2
     1  F   -0.219644   0.000165
     2  C    0.983406  -0.000294
     3  F   -0.211042  -0.000026
     4  F   -0.204666   0.000188
     5  O   -0.511578   0.003476
     6  C    0.795102   0.035249
     7  F   -0.205468   0.028389
     8  F   -0.209344   0.003273
     9  C    0.492800   0.263656
    10  F   -0.108089   0.082263
    11  F   -0.103568   0.084888
    12  C    0.464392   0.261428
    13  F   -0.095427   0.086005
    14  F   -0.110970   0.080629
    15  C    0.824968   0.037326
    16  F   -0.187471   0.028936
    17  F   -0.199677   0.000386
    18  F   -0.193724   0.004063
 Sum of Mulliken charges =   1.00000   1.00000

 Dipole moment (field-independent basis, Debye):
    X=             -3.1517    Y=             -0.0281    Z=             -3.4542  Tot=              4.6761
 Quadrupole moment (field-independent basis, Debye-Ang):
   XX=            -74.9757   YY=            -81.8425   ZZ=            -80.6450
   XY=              2.5728   XZ=              4.3424   YZ=             -1.4479

 Normal termination of Gaussian 09 at Sun Feb  2 17:35:29 2025.
