 Gaussian 09, Revision D.01,
 Gaussian 09:  ES64L-G09RevD.01 24-Apr-2013

 ----------------------------------------------------------------------
 #p CAM-B3LYP/6-31G(d,p) SCRF=(PCM,Solvent=Generic,Read) NoSymm out=wfn
 ----------------------------------------------------------------------

 ---------------
 Title FFKM0_neu
 ---------------
 Symbolic Z-matrix:
 Charge =  0 Multiplicity = 1

                          Input orientation:
 ---------------------------------------------------------------------
 Center     Atomic      Atomic             Coordinates (Angstroms)
 Number     Number       Type             X           Y           Z
 ---------------------------------------------------------------------
      1          9           0        2.361540   -0.213350    2.079630
      2          6           0        2.439840   -0.744740    0.872130
      3          9           0        3.493830   -0.262550    0.244930
      4          9           0        2.507890   -2.051170    0.944230
      5          8           0        1.272850   -0.462520    0.137720
      6          6           0        0.768050    0.789820    0.154350
      7          9           0        1.678690    1.736150   -0.074220
      8          9           0        0.106260    1.090890    1.266940
      9          6           0       -0.238040    0.893120   -1.042170
     10          9           0        0.270860    0.686640   -2.204310
     11          9           0       -1.052630    1.882820   -0.988930
     12          6           0       -1.487590   -0.675360   -0.989350
     13          9           0       -0.723390   -1.659320   -1.290250
     14          9           0       -2.279800   -0.312840   -1.936040
     15          6           0       -2.143380   -0.724390    0.435630
     16          9           0       -3.188650   -1.519820    0.319240
     17          9           0       -2.517350    0.488610    0.787120
     18          9           0       -1.268980   -1.221340    1.283360
 ---------------------------------------------------------------------

 SCF Done:  E(RCAM-B3LYP) =  -1463.40106842     A.U. after   12 cycles

 Alpha  occ. eigenvalues --  -24.83997 -24.83986 -24.83644 -24.83031 -24.82952
 Alpha  occ. eigenvalues --  -24.82661 -24.82656 -24.82610 -24.82547 -24.82456
 Alpha  occ. eigenvalues --  -24.82295 -24.82183 -19.31555 -10.59419 -10.53304
 Alpha  occ. eigenvalues --  -10.51958 -10.45784 -10.45702  -1.44798  -1.42946
 Alpha  occ. eigenvalues --   -1.41078  -1.39861  -1.38845  -1.34785  -1.34438
 Alpha  occ. eigenvalues --   -1.34381  -1.33887  -1.33273  -1.33104  -1.32423
 Alpha  occ. eigenvalues --   -1.21208  -0.88684  -0.84982  -0.80334  -0.76654
 Alpha  occ. eigenvalues --   -0.75637  -0.72763  -0.71840  -0.71200  -0.70526
 Alpha  occ. eigenvalues --   -0.69753  -0.69485  -0.68731  -0.67938  -0.66436
 Alpha  occ. eigenvalues --   -0.66220  -0.65249  -0.60869  -0.58390  -0.57461
 Alpha  occ. eigenvalues --   -0.57355  -0.56952  -0.56718  -0.56027  -0.55532
 Alpha  occ. eigenvalues --   -0.54770  -0.54127  -0.53857  -0.53410  -0.53350
 Alpha  occ. eigenvalues --   -0.52867  -0.52304  -0.51939  -0.50995  -0.50691
 Alpha  occ. eigenvalues --   -0.50600  -0.50269  -0.49719  -0.48489  -0.46646
 Alpha  occ. eigenvalues --   -0.45195  -0.44558  -0.31686
 Alpha virt. eigenvalues --    0.06639   0.16211   0.16976   0.18751   0.22431
 Alpha virt. eigenvalues --    0.22535   0.23287   0.24407   0.25041   0.26781
 Alpha virt. eigenvalues --    0.28579   0.29628   0.30429   0.32528   0.36895

 Mulliken charges:
               1
     1  F   -0.231667
     2  C    0.961336
     3  F   -0.223403
     4  F   -0.217334
     5  O   -0.511692
     6  C    0.741641
     7  F   -0.257145
     8  F   -0.245941
     9  C    0.411479
    10  F   -0.218596
    11  F   -0.214230
    12  C    0.381241
    13  F   -0.207303
    14  F   -0.221422
    15  C    0.758021
    16  F   -0.240301
    17  F   -0.232764
    18  F   -0.231920
 Sum of Mulliken charges =   0.00000

 Dipole moment (field-independent basis, Debye):
    X=              0.4536    Y=             -0.3023    Z=              0.2475  Tot=              0.5987
 Quadrupole moment (field-independent basis, Debye-Ang):
   XX=            -89.9943   YY=            -91.1825   ZZ=            -91.3422
   XY=             -0.0619   XZ=              0.6011   YZ=             -0.5393

 Normal termination of Gaussian 09 at Sun Feb  2 23:12:24 2025.
