 Gaussian 09, Revision D.01,
 Gaussian 09:  ES64L-G09RevD.01 24-Apr-2013

 ----------------------------------------------------------------------
 #p CAM-B3LYP/6-31G(d,p) opt SCRF=(PCM,Solvent=Generic,Read) NoSymm out
 =wfn
 ----------------------------------------------------------------------

 -------------
 Title OA0_neu
 -------------
 Symbolic Z-matrix:
 Charge =  0 Multiplicity = 1

 SCF Done:  E(RCAM-B3LYP) =  -1974.53053039     A.U. after   13 cycles
 SCF Done:  E(RCAM-B3LYP) =  -1974.55267943     A.U. after   12 cycles
 SCF Done:  E(RCAM-B3LYP) =  -1974.55896614     A.U. after   11 cycles
 SCF Done:  E(RCAM-B3LYP) =  -1974.56073769     A.U. after   12 cycles
 SCF Done:  E(RCAM-B3LYP) =  -1974.56147836     A.U. after   12 cycles
 SCF Done:  E(RCAM-B3LYP) =  -1974.56177353     A.U. after   11 cycles
 SCF Done:  E(RCAM-B3LYP) =  -1974.56193802     A.U. after   11 cycles
 SCF Done:  E(RCAM-B3LYP) =  -1974.56213529     A.U. after   11 cycles
 SCF Done:  E(RCAM-B3LYP) =  -1974.56222089     A.U. after   11 cycles
 SCF Done:  E(RCAM-B3LYP) =  -1974.56228346     A.U. after   10 cycles
 SCF Done:  E(RCAM-B3LYP) =  -1974.56245062     A.U. after   12 cycles
 SCF Done:  E(RCAM-B3LYP) =  -1974.56246368     A.U. after    9 cycles
 SCF Done:  E(RCAM-B3LYP) =  -1974.56248142     A.U. after   10 cycles
 SCF Done:  E(RCAM-B3LYP) =  -1974.56250281     A.U. after   10 cycles
 SCF Done:  E(RCAM-B3LYP) =  -1974.56251395     A.U. after   11 cycles
 SCF Done:  E(RCAM-B3LYP) =  -1974.56251666     A.U. after   11 cycles
 SCF Done:  E(RCAM-B3LYP) =  -1974.56251782     A.U. after    9 cycles
 SCF Done:  E(RCAM-B3LYP) =  -1974.56252130     A.U. after   10 cycles
 SCF Done:  E(RCAM-B3LYP) =  -1974.56252171     A.U. after    8 cycles
 SCF Done:  E(RCAM-B3LYP) =  -1974.56252172     A.U. after    6 cycles
 Optimization completed.
    -- Stationary point found.

                          Input orientation:
 ---------------------------------------------------------------------
 Center     Atomic      Atomic             Coordinates (Angstroms)
 Number     Number       Type             X           Y           Z
 ---------------------------------------------------------------------
      1          9           0        4.395743    2.172988    2.726376
      2          6           0        4.430511    1.916019    1.422070
      3          9           0        4.463511    3.084046    0.767316
      4          6           0        5.643983    1.045831    1.037882
      5          9           0        6.686531    1.803596    0.646093
      6          9           0        6.014662    0.305497    2.089097
      7          6           0        5.112178    0.126470   -0.077858
      8          9           0        5.643773   -1.118484    0.040007
      9          6           0        5.441167    0.655607   -1.487510
     10          9           0        4.819929    1.838589   -1.647364
     11          6           0        6.934018    0.861997   -1.822849
     12          8           0        7.661879   -0.191526   -1.467886
     13          8           0        7.331520    1.839683   -2.388726
     14          9           0        4.958648   -0.233382   -2.386680
     15          6           0        3.575240    0.121220    0.211294
     16          9           0        2.843462    0.286279   -0.921969
     17          6           0        3.068982   -1.174223    0.871784
     18          9           0        3.245036   -2.180961   -0.027754
     19          6           0        1.582376   -1.094970    1.292376
     20          7           0        0.731348   -1.502159    0.335656
     21          6           0       -0.712775   -1.471161    0.503478
     22          6           0       -1.393160   -0.637853   -0.579938
     23          6           0       -2.921061   -0.670985   -0.501293
     24          6           0       -3.499904   -0.009854    0.751009
     25          6           0       -5.028445   -0.045854    0.829068
     26          6           0       -5.745634    0.769142   -0.246529
     27          6           0       -7.262699    0.786863   -0.070121
     28          6           0       -7.980860    1.592635   -1.148046
     29          8           0        1.293231   -0.676409    2.396055
     30          9           0        3.820750   -1.414363    1.959538
     31          8           0        3.314200    1.191415    1.069939
     32          1           0        8.580459   -0.026212   -1.740266
     33          1           0        1.117870   -1.863570   -0.523574
     34          1           0       -1.100864   -2.496596    0.490406
     35          1           0       -0.893546   -1.062636    1.497795
     36          1           0       -1.034510    0.395353   -0.510234
     37          1           0       -1.077408   -1.011625   -1.561616
     38          1           0       -3.265076   -1.712858   -0.553001
     39          1           0       -3.318298   -0.176315   -1.393106
     40          1           0       -3.097585   -0.500305    1.644353
     41          1           0       -3.158094    1.032529    0.797023
     42          1           0       -5.337187    0.325909    1.813619
     43          1           0       -5.368865   -1.088827    0.780057
     44          1           0       -5.510144    0.373063   -1.241802
     45          1           0       -5.367478    1.800305   -0.231830
     46          1           0       -7.505694    1.196359    0.918153
     47          1           0       -7.637680   -0.244205   -0.071090
     48          1           0       -7.784775    1.182279   -2.143801
     49          1           0       -7.645682    2.634678   -1.149924
     50          1           0       -9.063586    1.591984   -0.995680
 ---------------------------------------------------------------------

 Alpha  occ. eigenvalues --  -24.83643 -24.82981 -24.82358 -24.82318 -24.82048
 Alpha  occ. eigenvalues --  -24.82044 -24.81985 -24.81927 -24.81639 -24.81243
 Alpha  occ. eigenvalues --  -19.31315 -19.30588 -19.25056 -19.20839 -14.45233
 Alpha  occ. eigenvalues --  -10.52027 -10.48209 -10.48039 -10.46460 -10.46217
 Alpha  occ. eigenvalues --  -10.43701 -10.42122 -10.38760 -10.29981 -10.26224
 Alpha  occ. eigenvalues --  -10.25562 -10.25046 -10.24813 -10.24803 -10.24613
 Alpha  occ. eigenvalues --  -10.24191  -1.40636  -1.38386  -1.38112  -1.37342
 Alpha  occ. eigenvalues --   -1.34721  -1.34178  -1.33085  -1.31808  -1.31616
 Alpha  occ. eigenvalues --   -1.30947  -1.22865  -1.21697  -1.13918  -1.13819
 Alpha  occ. eigenvalues --   -1.02670  -0.94899  -0.90461  -0.89650  -0.87302
 Alpha  occ. eigenvalues --   -0.86471  -0.83895  -0.81757  -0.78528  -0.77735
 Alpha  occ. eigenvalues --   -0.75804  -0.74099  -0.73426  -0.70884  -0.70631
 Alpha  occ. eigenvalues --   -0.69095  -0.68974  -0.68255  -0.67882  -0.67107
 Alpha  occ. eigenvalues --   -0.66444  -0.66156  -0.65659  -0.65326  -0.64326
 Alpha  occ. eigenvalues --   -0.64155  -0.63751  -0.63538  -0.61637  -0.58558
 Alpha  occ. eigenvalues --   -0.57122  -0.56750  -0.56464  -0.55829  -0.55286
 Alpha  occ. eigenvalues --   -0.54933  -0.54296  -0.54208  -0.53895  -0.53848
 Alpha  occ. eigenvalues --   -0.53215  -0.53110  -0.52824  -0.52377  -0.52156
 Alpha  occ. eigenvalues --   -0.51729  -0.51390  -0.51348  -0.51121  -0.50397
 Alpha  occ. eigenvalues --   -0.50316  -0.50180  -0.49516  -0.49179  -0.48963
 Alpha  occ. eigenvalues --   -0.48517  -0.47770  -0.47404  -0.46568  -0.46138
 Alpha  occ. eigenvalues --   -0.45615  -0.44274  -0.43961  -0.43284  -0.42420
 Alpha  occ. eigenvalues --   -0.41827  -0.41701  -0.41117  -0.40673  -0.39809
 Alpha  occ. eigenvalues --   -0.38600  -0.37917  -0.37663  -0.37069  -0.36667
 Alpha  occ. eigenvalues --   -0.33736  -0.32821
 Alpha virt. eigenvalues --    0.01730   0.03533   0.06876   0.10347   0.11340
 Alpha virt. eigenvalues --    0.12736   0.13345   0.13904   0.14935   0.15795
 Alpha virt. eigenvalues --    0.16184   0.16689   0.17203   0.17814   0.19123

 Mulliken charges:
               1
     1  F   -0.236619
     2  C    0.758657
     3  F   -0.242459
     4  C    0.525554
     5  F   -0.258184
     6  F   -0.250908
     7  C    0.138124
     8  F   -0.281237
     9  C    0.607882
    10  F   -0.264061
    11  C    0.535891
    12  O   -0.467872
    13  O   -0.431841
    14  F   -0.274650
    15  C    0.483570
    16  F   -0.277509
    17  C    0.559694
    18  F   -0.288211
    19  C    0.536477
    20  N   -0.536781
    21  C   -0.045803
    22  C   -0.189334
    23  C   -0.183456
    24  C   -0.183197
    25  C   -0.181379
    26  C   -0.167936
    27  C   -0.176249
    28  C   -0.320601
    29  O   -0.505296
    30  F   -0.270194
    31  O   -0.478157
    32  H    0.357850
    33  H    0.285872
    34  H    0.120662
    35  H    0.152670
    36  H    0.113198
    37  H    0.094471
    38  H    0.092222
    39  H    0.102631
    40  H    0.096190
    41  H    0.095741
    42  H    0.092326
    43  H    0.088810
    44  H    0.091219
    45  H    0.089521
    46  H    0.093475
    47  H    0.092249
    48  H    0.101954
    49  H    0.103252
    50  H    0.101772
 Sum of Mulliken charges =   0.00000

 Dipole moment (field-independent basis, Debye):
    X=             -0.5074    Y=             -2.6148    Z=             -2.8822  Tot=              3.9245
 Quadrupole moment (field-independent basis, Debye-Ang):
   XX=           -147.5534   YY=           -178.2233   ZZ=           -186.1380
   XY=             -8.4013   XZ=             -5.7628   YZ=              7.3761

 Normal termination of Gaussian 09 at Tue Feb  4 09:05:29 2025.
