 Gaussian 09, Revision D.01,
 Gaussian 09:  ES64L-G09RevD.01 24-Apr-2013

 ----------------------------------------------------------------------
 #p CAM-B3LYP/6-31G(d,p) SCRF=(PCM,Solvent=Generic,Read) NoSymm out=wfn
 ----------------------------------------------------------------------

 ------------------
 Title A154147352_0
 ------------------
 Symbolic Z-matrix:
 Charge =  0 Multiplicity = 1

                          Input orientation:
 ---------------------------------------------------------------------
 Center     Atomic      Atomic             Coordinates (Angstroms)
 Number     Number       Type             X           Y           Z
 ---------------------------------------------------------------------
      1          8           0        1.856172    2.295444   -0.390111
      2          6           0        0.863621    1.599519   -0.190291
      3          7           0       -0.349881    2.162606    0.140204
      4          6           0       -0.481398    3.623707    0.048922
      5          6           0       -0.438129    4.158312   -1.380205
      6         35           0       -1.960372    3.528921   -2.419643
      7          6           0       -1.430437    1.418862    0.563774
      8          8           0       -2.534428    1.925061    0.743994
      9          7           0       -1.203718    0.081340    0.763781
     10          6           0       -2.279459   -0.731206    1.329692
     11          9           0       -1.693706   -1.660072    2.156483
     12          9           0       -3.017398    0.008572    2.207703
     13          6           0       -3.223694   -1.494175    0.360042
     14          9           0       -4.041351   -2.285792    1.126072
     15          8           0       -2.453470   -2.386669   -0.452199
     16          6           0       -3.207757   -3.070308   -1.417033
     17          9           0       -3.384415   -2.260888   -2.475552
     18          9           0       -4.395243   -3.463628   -0.933907
     19          9           0       -2.517316   -4.153127   -1.817703
     20          6           0       -4.076117   -0.471102   -0.392302
     21          9           0       -5.020936   -1.071840   -1.154581
     22          9           0       -4.733393    0.374120    0.424001
     23          9           0       -3.307791    0.256594   -1.237181
     24          6           0       -0.086072   -0.554710    0.281371
     25          8           0        0.056086   -1.770903    0.363457
     26          7           0        0.887807    0.232301   -0.279503
     27          6           0        2.116116   -0.385481   -0.762964
     28          9           0        2.487851    0.306966   -1.892161
     29          9           0        1.854125   -1.630425   -1.262452
     30          6           0        3.352794   -0.466181    0.175411
     31          9           0        3.666796    0.783597    0.625998
     32          8           0        4.468541   -0.891760   -0.626729
     33          6           0        5.628477   -1.149007    0.117636
     34          9           0        5.816225   -0.225425    1.072554
     35          9           0        5.531658   -2.370313    0.668804
     36          9           0        6.685228   -1.136170   -0.715380
     37          6           0        2.996560   -1.352549    1.369677
     38          9           0        2.711823   -2.617545    1.006044
     39          9           0        1.935799   -0.855569    2.050486
     40          9           0        4.007389   -1.416800    2.268182
     41          1           0       -1.399090    3.957531    0.545804
     42          1           0        0.353451    4.063071    0.609071
     43          1           0        0.454244    3.844813   -1.927203
     44          1           0       -0.495191    5.250310   -1.388319
 ---------------------------------------------------------------------

 SCF Done:  E(RCAM-B3LYP) =  -5406.31025050     A.U. after   13 cycles

 Alpha  occ. eigenvalues -- -482.97153 -61.93085 -56.45211 -56.44838 -56.44826
 Alpha  occ. eigenvalues --  -24.84455 -24.83743 -24.83740 -24.83667 -24.83653
 Alpha  occ. eigenvalues --  -24.83552 -24.83455 -24.83327 -24.83310 -24.83297
 Alpha  occ. eigenvalues --  -24.83241 -24.83167 -24.83056 -24.83010 -24.82919
 Alpha  occ. eigenvalues --  -24.82900 -24.82301 -24.82125 -19.33050 -19.32960
 Alpha  occ. eigenvalues --  -19.24636 -19.24455 -19.24100 -14.53728 -14.53661
 Alpha  occ. eigenvalues --  -14.51286 -10.59618 -10.59519 -10.55923 -10.55524
 Alpha  occ. eigenvalues --  -10.53811 -10.53786 -10.49353 -10.49179 -10.47237
 Alpha  occ. eigenvalues --  -10.46354 -10.46123 -10.33613 -10.33045  -8.65287
 Alpha  occ. eigenvalues --   -6.60827  -6.59554  -6.59536  -2.72587  -2.72230
 Alpha  occ. eigenvalues --   -2.72214  -2.71203  -2.71203  -1.43370  -1.43204
 Alpha  occ. eigenvalues --   -1.42232  -1.41862  -1.39038  -1.38839  -1.35847
 Alpha  occ. eigenvalues --   -1.35335  -1.33685  -1.33538  -1.33420  -1.33246
 Alpha  occ. eigenvalues --   -1.33241  -1.33048  -1.32621  -1.32307  -1.31309
 Alpha  occ. eigenvalues --   -1.31274  -1.23806  -1.20632  -1.20504  -1.18482
 Alpha  occ. eigenvalues --   -1.18324  -1.10480  -1.09051  -1.07272  -0.94335
 Alpha  occ. eigenvalues --   -0.93496  -0.91581  -0.86115  -0.84312  -0.84192
 Alpha  occ. eigenvalues --   -0.82874  -0.82265  -0.79564  -0.79081  -0.77133
 Alpha  occ. eigenvalues --   -0.76096  -0.75232  -0.74098  -0.73083  -0.72709
 Alpha  occ. eigenvalues --   -0.72013  -0.71400  -0.70672  -0.70526  -0.69805
 Alpha  occ. eigenvalues --   -0.69526  -0.69372  -0.69007  -0.68486  -0.67905
 Alpha  occ. eigenvalues --   -0.67478  -0.66557  -0.66372  -0.65503  -0.64765
 Alpha  occ. eigenvalues --   -0.64240  -0.62871  -0.60474  -0.60062  -0.59535
 Alpha  occ. eigenvalues --   -0.58003  -0.57819  -0.57333  -0.57198  -0.57100
 Alpha  occ. eigenvalues --   -0.56819  -0.56317  -0.56149  -0.56005  -0.55797
 Alpha  occ. eigenvalues --   -0.55733  -0.55229  -0.55128  -0.54902  -0.54702
 Alpha  occ. eigenvalues --   -0.54500  -0.54061  -0.53802  -0.53512  -0.53347
 Alpha  occ. eigenvalues --   -0.53113  -0.52845  -0.52701  -0.52380  -0.52140
 Alpha  occ. eigenvalues --   -0.52034  -0.51786  -0.51429  -0.51078  -0.51053
 Alpha  occ. eigenvalues --   -0.50871  -0.50513  -0.50445  -0.50255  -0.50120
 Alpha  occ. eigenvalues --   -0.49547  -0.49497  -0.49245  -0.48970  -0.48836
 Alpha  occ. eigenvalues --   -0.48760  -0.47835  -0.46165  -0.46136  -0.44704
 Alpha  occ. eigenvalues --   -0.44571  -0.43170  -0.40719  -0.39822  -0.39614
 Alpha  occ. eigenvalues --   -0.38796  -0.37658  -0.36323  -0.34471  -0.34089
 Alpha virt. eigenvalues --   -0.00068   0.00318   0.05241   0.05508   0.06407
 Alpha virt. eigenvalues --    0.06878   0.07279   0.10202   0.13076   0.14377
 Alpha virt. eigenvalues --    0.14781   0.15249   0.17176   0.18109   0.18601

 Mulliken charges:
               1
     1  O   -0.498734
     2  C    0.845591
     3  N   -0.584717
     4  C   -0.062276
     5  C   -0.213749
     6  Br  -0.157309
     7  C    0.855212
     8  O   -0.500420
     9  N   -0.649864
    10  C    0.743016
    11  F   -0.261402
    12  F   -0.245634
    13  C    0.435962
    14  F   -0.266621
    15  O   -0.504133
    16  C    0.996628
    17  F   -0.247614
    18  F   -0.241955
    19  F   -0.236966
    20  C    0.817132
    21  F   -0.254571
    22  F   -0.234524
    23  F   -0.247594
    24  C    0.864550
    25  O   -0.486102
    26  N   -0.647437
    27  C    0.749512
    28  F   -0.266604
    29  F   -0.244811
    30  C    0.436509
    31  F   -0.253968
    32  O   -0.512451
    33  C    0.997308
    34  F   -0.243158
    35  F   -0.244976
    36  F   -0.238298
    37  C    0.817256
    38  F   -0.232905
    39  F   -0.251015
    40  F   -0.252851
    41  H    0.185757
    42  H    0.173235
    43  H    0.183666
    44  H    0.181324
 Sum of Mulliken charges =   0.00000

 Dipole moment (field-independent basis, Debye):
    X=              1.1457    Y=              3.3044    Z=              1.0966  Tot=              3.6653
 Quadrupole moment (field-independent basis, Debye-Ang):
   XX=           -237.9020   YY=           -216.6564   ZZ=           -227.8860
   XY=              4.1250   XZ=              1.7926   YZ=              4.9336

 Normal termination of Gaussian 09 at Sun Mar  3 18:19:09 2024.
