 Gaussian 09, Revision D.01,
 Gaussian 09:  ES64L-G09RevD.01 24-Apr-2013

 ----------------------------------------------------------------------
 #p CAM-B3LYP/6-31G(d,p) SCRF=(PCM,Solvent=Generic,Read) NoSymm out=wfn
 ----------------------------------------------------------------------

 -------------------
 Title A154147352_p1
 -------------------
 Symbolic Z-matrix:
 Charge =  1 Multiplicity = 2

                          Input orientation:
 ---------------------------------------------------------------------
 Center     Atomic      Atomic             Coordinates (Angstroms)
 Number     Number       Type             X           Y           Z
 ---------------------------------------------------------------------
      1          8           0        1.856172    2.295444   -0.390111
      2          6           0        0.863621    1.599519   -0.190291
      3          7           0       -0.349881    2.162606    0.140204
      4          6           0       -0.481398    3.623707    0.048922
      5          6           0       -0.438129    4.158312   -1.380205
      6         35           0       -1.960372    3.528921   -2.419643
      7          6           0       -1.430437    1.418862    0.563774
      8          8           0       -2.534428    1.925061    0.743994
      9          7           0       -1.203718    0.081340    0.763781
     10          6           0       -2.279459   -0.731206    1.329692
     11          9           0       -1.693706   -1.660072    2.156483
     12          9           0       -3.017398    0.008572    2.207703
     13          6           0       -3.223694   -1.494175    0.360042
     14          9           0       -4.041351   -2.285792    1.126072
     15          8           0       -2.453470   -2.386669   -0.452199
     16          6           0       -3.207757   -3.070308   -1.417033
     17          9           0       -3.384415   -2.260888   -2.475552
     18          9           0       -4.395243   -3.463628   -0.933907
     19          9           0       -2.517316   -4.153127   -1.817703
     20          6           0       -4.076117   -0.471102   -0.392302
     21          9           0       -5.020936   -1.071840   -1.154581
     22          9           0       -4.733393    0.374120    0.424001
     23          9           0       -3.307791    0.256594   -1.237181
     24          6           0       -0.086072   -0.554710    0.281371
     25          8           0        0.056086   -1.770903    0.363457
     26          7           0        0.887807    0.232301   -0.279503
     27          6           0        2.116116   -0.385481   -0.762964
     28          9           0        2.487851    0.306966   -1.892161
     29          9           0        1.854125   -1.630425   -1.262452
     30          6           0        3.352794   -0.466181    0.175411
     31          9           0        3.666796    0.783597    0.625998
     32          8           0        4.468541   -0.891760   -0.626729
     33          6           0        5.628477   -1.149007    0.117636
     34          9           0        5.816225   -0.225425    1.072554
     35          9           0        5.531658   -2.370313    0.668804
     36          9           0        6.685228   -1.136170   -0.715380
     37          6           0        2.996560   -1.352549    1.369677
     38          9           0        2.711823   -2.617545    1.006044
     39          9           0        1.935799   -0.855569    2.050486
     40          9           0        4.007389   -1.416800    2.268182
     41          1           0       -1.399090    3.957531    0.545804
     42          1           0        0.353451    4.063071    0.609071
     43          1           0        0.454244    3.844813   -1.927203
     44          1           0       -0.495191    5.250310   -1.388319
 ---------------------------------------------------------------------

 SCF Done:  E(UCAM-B3LYP) =  -5405.99403697     A.U. after   33 cycles

 Alpha  occ. eigenvalues -- -483.15735 -62.11482 -56.63705 -56.63460 -56.63094
 Alpha  occ. eigenvalues --  -24.86668 -24.86208 -24.85864 -24.85750 -24.85303
 Alpha  occ. eigenvalues --  -24.85249 -24.85219 -24.85092 -24.85050 -24.85008
 Alpha  occ. eigenvalues --  -24.84999 -24.84964 -24.84848 -24.84791 -24.84782
 Alpha  occ. eigenvalues --  -24.84724 -24.84550 -24.84429 -19.34941 -19.34663
 Alpha  occ. eigenvalues --  -19.29914 -19.29247 -19.27495 -14.57339 -14.57246
 Alpha  occ. eigenvalues --  -14.57109 -10.61245 -10.60969 -10.57956 -10.57578
 Alpha  occ. eigenvalues --  -10.56406 -10.56263 -10.51418 -10.51291 -10.51075
 Alpha  occ. eigenvalues --  -10.50733 -10.50321 -10.42916 -10.40772  -8.83704
 Alpha  occ. eigenvalues --   -6.79263  -6.78601  -6.77369  -2.91137  -2.91080
 Alpha  occ. eigenvalues --   -2.90106  -2.89678  -2.89467  -1.45134  -1.44783
 Alpha  occ. eigenvalues --   -1.44103  -1.43732  -1.41470  -1.41192  -1.37748
 Alpha  occ. eigenvalues --   -1.37313  -1.35772  -1.35299  -1.35131  -1.35023
 Alpha  occ. eigenvalues --   -1.34847  -1.34654  -1.34347  -1.34049  -1.33682
 Alpha  occ. eigenvalues --   -1.33630  -1.27979  -1.23201  -1.22733  -1.22114
 Alpha  occ. eigenvalues --   -1.22088  -1.14603  -1.12755  -1.12379  -1.04884
 Alpha  occ. eigenvalues --   -0.96762  -0.95690  -0.93970  -0.88551  -0.87709
 Alpha  occ. eigenvalues --   -0.85359  -0.84660  -0.84284  -0.81970  -0.80491
 Alpha  occ. eigenvalues --   -0.79657  -0.78338  -0.78062  -0.75668  -0.75093
 Alpha  occ. eigenvalues --   -0.74402  -0.73983  -0.72966  -0.72504  -0.71947
 Alpha  occ. eigenvalues --   -0.71533  -0.71222  -0.70672  -0.70601  -0.70258
 Alpha  occ. eigenvalues --   -0.69522  -0.68862  -0.68427  -0.67872  -0.67786
 Alpha  occ. eigenvalues --   -0.66887  -0.66642  -0.65668  -0.63179  -0.62186
 Alpha  occ. eigenvalues --   -0.61972  -0.61754  -0.60913  -0.59905  -0.59642
 Alpha  occ. eigenvalues --   -0.59252  -0.59036  -0.58846  -0.58678  -0.58446
 Alpha  occ. eigenvalues --   -0.58219  -0.58152  -0.57756  -0.57684  -0.57480
 Alpha  occ. eigenvalues --   -0.57362  -0.57102  -0.56660  -0.56412  -0.56194
 Alpha  occ. eigenvalues --   -0.55885  -0.55665  -0.55245  -0.54942  -0.54709
 Alpha  occ. eigenvalues --   -0.54460  -0.54275  -0.54022  -0.53728  -0.53606
 Alpha  occ. eigenvalues --   -0.53331  -0.52952  -0.52741  -0.52694  -0.52488
 Alpha  occ. eigenvalues --   -0.52371  -0.51961  -0.51832  -0.51639  -0.51496
 Alpha  occ. eigenvalues --   -0.51265  -0.50974  -0.50744  -0.50689  -0.48583
 Alpha  occ. eigenvalues --   -0.48253  -0.47998  -0.46781  -0.46371  -0.45105
 Alpha  occ. eigenvalues --   -0.43854  -0.43527  -0.43094  -0.42042  -0.40205
 Alpha virt. eigenvalues --   -0.06060  -0.04527  -0.03202   0.03054   0.03861
 Alpha virt. eigenvalues --    0.04006   0.04856   0.06880   0.08447   0.09692
 Alpha virt. eigenvalues --    0.11143   0.11744   0.12463   0.14224   0.14505

  Beta  occ. eigenvalues -- -483.15520 -62.11355 -56.63365 -56.63233 -56.63003
  Beta  occ. eigenvalues --  -24.86668 -24.86208 -24.85858 -24.85750 -24.85303
  Beta  occ. eigenvalues --  -24.85249 -24.85219 -24.85092 -24.85050 -24.85008
  Beta  occ. eigenvalues --  -24.84999 -24.84964 -24.84848 -24.84791 -24.84782
  Beta  occ. eigenvalues --  -24.84724 -24.84550 -24.84429 -19.34941 -19.34663
  Beta  occ. eigenvalues --  -19.29710 -19.29177 -19.27496 -14.57249 -14.57208
  Beta  occ. eigenvalues --  -14.57111 -10.61245 -10.60969 -10.57956 -10.57578
  Beta  occ. eigenvalues --  -10.56406 -10.56262 -10.51418 -10.51291 -10.51114
  Beta  occ. eigenvalues --  -10.50757 -10.50321 -10.42878 -10.40722  -8.83360
  Beta  occ. eigenvalues --   -6.78433  -6.78342  -6.77204  -2.90573  -2.90551
  Beta  occ. eigenvalues --   -2.89593  -2.89559  -2.89253  -1.45134  -1.44783
  Beta  occ. eigenvalues --   -1.44103  -1.43732  -1.41465  -1.41192  -1.37747
  Beta  occ. eigenvalues --   -1.37312  -1.35772  -1.35299  -1.35131  -1.35023
  Beta  occ. eigenvalues --   -1.34847  -1.34654  -1.34347  -1.34049  -1.33677
  Beta  occ. eigenvalues --   -1.33629  -1.27882  -1.23009  -1.22700  -1.22101
  Beta  occ. eigenvalues --   -1.22048  -1.14413  -1.12697  -1.12199  -1.02560
  Beta  occ. eigenvalues --   -0.96636  -0.95686  -0.92886  -0.88494  -0.87678
  Beta  occ. eigenvalues --   -0.85074  -0.84655  -0.84106  -0.81950  -0.80303
  Beta  occ. eigenvalues --   -0.79612  -0.78133  -0.78058  -0.75613  -0.75085
  Beta  occ. eigenvalues --   -0.74390  -0.73979  -0.72953  -0.72496  -0.71932
  Beta  occ. eigenvalues --   -0.71531  -0.71219  -0.70669  -0.70597  -0.70243
  Beta  occ. eigenvalues --   -0.69496  -0.68837  -0.68422  -0.67864  -0.67673
  Beta  occ. eigenvalues --   -0.66797  -0.66589  -0.65250  -0.62415  -0.62173
  Beta  occ. eigenvalues --   -0.61872  -0.61654  -0.60680  -0.59838  -0.59606
  Beta  occ. eigenvalues --   -0.59222  -0.58932  -0.58803  -0.58593  -0.58377
  Beta  occ. eigenvalues --   -0.58147  -0.58039  -0.57710  -0.57665  -0.57406
  Beta  occ. eigenvalues --   -0.57142  -0.56845  -0.56635  -0.56344  -0.55994
  Beta  occ. eigenvalues --   -0.55788  -0.55538  -0.55121  -0.54931  -0.54687
  Beta  occ. eigenvalues --   -0.54283  -0.54148  -0.54009  -0.53713  -0.53493
  Beta  occ. eigenvalues --   -0.53243  -0.52890  -0.52681  -0.52632  -0.52348
  Beta  occ. eigenvalues --   -0.52184  -0.51923  -0.51608  -0.51519  -0.51252
  Beta  occ. eigenvalues --   -0.50972  -0.50742  -0.50694  -0.48328  -0.48034
  Beta  occ. eigenvalues --   -0.47352  -0.46705  -0.46365  -0.44694  -0.43711
  Beta  occ. eigenvalues --   -0.43291  -0.42116  -0.41941  -0.39965
  Beta virt. eigenvalues --   -0.29104  -0.05341  -0.04345  -0.03082   0.03059
  Beta virt. eigenvalues --    0.03922   0.04015   0.04863   0.06915   0.08633
  Beta virt. eigenvalues --    0.09780   0.11231   0.11762   0.12587   0.14287

 Mulliken charges and spin densities:
               1          2
     1  O   -0.473349   0.027129
     2  C    0.856510  -0.014340
     3  N   -0.580584   0.062129
     4  C   -0.097390   0.020118
     5  C   -0.260522  -0.001641
     6  Br   0.498864   0.810144
     7  C    0.868692  -0.023825
     8  O   -0.472124   0.074919
     9  N   -0.650356  -0.000560
    10  C    0.743987  -0.000203
    11  F   -0.253642   0.000060
    12  F   -0.241717   0.001214
    13  C    0.440923  -0.000106
    14  F   -0.259717  -0.000008
    15  O   -0.504486  -0.000003
    16  C    0.999249  -0.000001
    17  F   -0.249127   0.000000
    18  F   -0.239088   0.000000
    19  F   -0.233877   0.000000
    20  C    0.816429  -0.000102
    21  F   -0.249253  -0.000003
    22  F   -0.232795   0.000001
    23  F   -0.257528  -0.000005
    24  C    0.870862   0.000007
    25  O   -0.464785  -0.000366
    26  N   -0.649995  -0.000682
    27  C    0.749945  -0.000036
    28  F   -0.265506   0.000042
    29  F   -0.239277   0.000052
    30  C    0.438673   0.000017
    31  F   -0.253872   0.000094
    32  O   -0.510832   0.000006
    33  C    0.999408   0.000001
    34  F   -0.242372   0.000001
    35  F   -0.242975   0.000000
    36  F   -0.236330   0.000000
    37  C    0.819138  -0.000008
    38  F   -0.230498  -0.000001
    39  F   -0.252126   0.000000
    40  F   -0.249370   0.000001
    41  H    0.227566   0.000778
    42  H    0.241267   0.011673
    43  H    0.264594   0.032856
    44  H    0.257387   0.000645
 Sum of Mulliken charges =   1.00000   1.00000

 Dipole moment (field-independent basis, Debye):
    X=             -5.4216    Y=             18.4598    Z=             -6.9391  Tot=             20.4526
 Quadrupole moment (field-independent basis, Debye-Ang):
   XX=           -215.9153   YY=           -153.8290   ZZ=           -201.7728
   XY=            -18.4759   XZ=             15.6347   YZ=            -25.4278

 Normal termination of Gaussian 09 at Sun Mar  3 18:21:13 2024.
