 Gaussian 09, Revision D.01,
 Gaussian 09:  ES64L-G09RevD.01 24-Apr-2013

 ----------------------------------------------------------------------
 #p CAM-B3LYP/6-31G(d,p) SCRF=(PCM,Solvent=Generic,Read) NoSymm out=wfn
 ----------------------------------------------------------------------

 ----------------
 Title A949740_p1
 ----------------
 Symbolic Z-matrix:
 Charge =  1 Multiplicity = 2

                          Input orientation:
 ---------------------------------------------------------------------
 Center     Atomic      Atomic             Coordinates (Angstroms)
 Number     Number       Type             X           Y           Z
 ---------------------------------------------------------------------
      1          8           0       -2.582013    1.686626    0.135951
      2          6           0       -1.546061    1.209698   -0.308638
      3          7           0       -0.579561    2.046980   -0.754166
      4          6           0        0.695441    1.673171   -1.019600
      5          8           0        1.553136    2.535039   -1.174221
      6          7           0        0.936782    0.330314   -1.023248
      7          6           0        2.291767   -0.137090   -1.276202
      8          9           0        2.174973   -1.302298   -1.997541
      9          9           0        2.906049    0.697937   -2.169123
     10          6           0        3.265359   -0.404373   -0.092269
     11          9           0        2.718438   -1.316661    0.760998
     12          8           0        4.437447   -1.031628   -0.644295
     13          6           0        5.472975   -1.202752    0.285212
     14          9           0        6.133236   -0.040375    0.421234
     15          9           0        5.006897   -1.610023    1.475335
     16          9           0        6.327510   -2.127941   -0.188991
     17          6           0        3.490211    0.908257    0.658489
     18          9           0        4.075338    1.847321   -0.109890
     19          9           0        4.280488    0.739569    1.744960
     20          9           0        2.324293    1.411289    1.131598
     21          6           0        0.026069   -0.564605   -0.504391
     22          8           0        0.383509   -1.679076   -0.134436
     23          7           0       -1.281752   -0.124868   -0.374947
     24          6           0       -2.232279   -1.104706    0.146162
     25          9           0       -1.886644   -1.361406    1.442209
     26          9           0       -2.000987   -2.284845   -0.514773
     27          6           0       -3.780658   -0.903945    0.085858
     28          9           0       -4.376219   -2.076621    0.499126
     29          8           0       -4.403925    0.106246    0.876620
     30          6           0       -4.095194    0.019224    2.244030
     31          9           0       -4.167911   -1.246028    2.687874
     32          9           0       -4.978205    0.768067    2.932035
     33          9           0       -2.859953    0.502752    2.468836
     34          6           0       -4.148450   -0.737390   -1.389616
     35          9           0       -5.485137   -0.586026   -1.557030
     36          9           0       -3.782591   -1.806580   -2.134246
     37          9           0       -3.559181    0.339117   -1.960378
     38          1           0       -0.753198    3.040234   -0.668527
 ---------------------------------------------------------------------

 SCF Done:  E(UCAM-B3LYP) =  -2756.14756469     A.U. after   48 cycles

 Alpha  occ. eigenvalues --  -24.93120 -24.92322 -24.91127 -24.91076 -24.90855
 Alpha  occ. eigenvalues --  -24.90775 -24.90718 -24.90181 -24.89556 -24.89431
 Alpha  occ. eigenvalues --  -24.89365 -24.89179 -24.88896 -24.88678 -24.88598
 Alpha  occ. eigenvalues --  -24.88461 -24.87959 -24.87922 -19.46997 -19.41432
 Alpha  occ. eigenvalues --  -19.39964 -19.39050 -19.38977 -14.67346 -14.66082
 Alpha  occ. eigenvalues --  -14.65781 -10.65445 -10.64539 -10.63270 -10.62925
 Alpha  occ. eigenvalues --  -10.62663 -10.62458 -10.61940 -10.60311 -10.59854
 Alpha  occ. eigenvalues --  -10.56843 -10.56762  -1.49877  -1.48988  -1.48236
 Alpha  occ. eigenvalues --   -1.48169  -1.47626  -1.47039  -1.42964  -1.41661
 Alpha  occ. eigenvalues --   -1.41057  -1.40493  -1.40172  -1.39715  -1.39363
 Alpha  occ. eigenvalues --   -1.39286  -1.39036  -1.38295  -1.38255  -1.38056
 Alpha  occ. eigenvalues --   -1.37511  -1.35665  -1.32770  -1.27370  -1.26473
 Alpha  occ. eigenvalues --   -1.25864  -1.22436  -1.20906  -1.02422  -1.01486
 Alpha  occ. eigenvalues --   -0.96948  -0.95915  -0.94693  -0.90286  -0.89517
 Alpha  occ. eigenvalues --   -0.88750  -0.87124  -0.84807  -0.83240  -0.81938
 Alpha  occ. eigenvalues --   -0.80217  -0.79430  -0.79195  -0.78671  -0.78016
 Alpha  occ. eigenvalues --   -0.77381  -0.76576  -0.76333  -0.76290  -0.75368
 Alpha  occ. eigenvalues --   -0.75276  -0.74752  -0.74359  -0.74127  -0.73698
 Alpha  occ. eigenvalues --   -0.73497  -0.73089  -0.72992  -0.72582  -0.71960
 Alpha  occ. eigenvalues --   -0.69728  -0.69188  -0.68196  -0.67438  -0.66366
 Alpha  occ. eigenvalues --   -0.66060  -0.65204  -0.64149  -0.64006  -0.63573
 Alpha  occ. eigenvalues --   -0.63370  -0.63022  -0.62828  -0.62427  -0.62222
 Alpha  occ. eigenvalues --   -0.62039  -0.61722  -0.61366  -0.61082  -0.60738
 Alpha  occ. eigenvalues --   -0.60686  -0.60511  -0.60210  -0.59540  -0.59306
 Alpha  occ. eigenvalues --   -0.58763  -0.58519  -0.58396  -0.58202  -0.57949
 Alpha  occ. eigenvalues --   -0.57578  -0.57227  -0.57041  -0.56863  -0.56612
 Alpha  occ. eigenvalues --   -0.56331  -0.56223  -0.55889  -0.55696  -0.55327
 Alpha  occ. eigenvalues --   -0.55233  -0.54960  -0.54410  -0.53720  -0.52887
 Alpha  occ. eigenvalues --   -0.52386  -0.51771  -0.51735  -0.50639  -0.50046
 Alpha virt. eigenvalues --   -0.14552  -0.12333  -0.04592  -0.03803  -0.02427
 Alpha virt. eigenvalues --   -0.00684   0.01000   0.02249   0.03987   0.06278
 Alpha virt. eigenvalues --    0.07161   0.08071   0.09335   0.10676   0.11936

  Beta  occ. eigenvalues --  -24.93049 -24.92322 -24.91118 -24.91064 -24.90853
  Beta  occ. eigenvalues --  -24.90776 -24.90710 -24.90168 -24.89552 -24.89430
  Beta  occ. eigenvalues --  -24.89365 -24.89176 -24.88893 -24.88678 -24.88598
  Beta  occ. eigenvalues --  -24.88460 -24.87958 -24.87923 -19.45540 -19.40641
  Beta  occ. eigenvalues --  -19.39872 -19.39049 -19.38605 -14.67275 -14.66044
  Beta  occ. eigenvalues --  -14.65656 -10.65449 -10.64539 -10.63274 -10.62925
  Beta  occ. eigenvalues --  -10.62666 -10.62572 -10.61940 -10.60379 -10.59895
  Beta  occ. eigenvalues --  -10.56844 -10.56765  -1.49862  -1.48975  -1.48232
  Beta  occ. eigenvalues --   -1.48081  -1.47622  -1.47028  -1.42932  -1.41649
  Beta  occ. eigenvalues --   -1.41026  -1.40366  -1.40159  -1.39378  -1.39338
  Beta  occ. eigenvalues --   -1.39037  -1.38313  -1.38289  -1.38252  -1.38055
  Beta  occ. eigenvalues --   -1.37511  -1.34094  -1.31967  -1.27193  -1.26467
  Beta  occ. eigenvalues --   -1.24695  -1.21940  -1.20414  -1.02389  -1.01391
  Beta  occ. eigenvalues --   -0.96287  -0.95730  -0.94323  -0.90118  -0.89125
  Beta  occ. eigenvalues --   -0.88139  -0.87084  -0.84746  -0.83200  -0.81884
  Beta  occ. eigenvalues --   -0.80162  -0.79371  -0.79102  -0.78630  -0.77949
  Beta  occ. eigenvalues --   -0.77298  -0.76486  -0.76262  -0.76245  -0.75352
  Beta  occ. eigenvalues --   -0.75135  -0.74738  -0.74167  -0.73995  -0.73669
  Beta  occ. eigenvalues --   -0.73079  -0.72952  -0.72668  -0.72101  -0.71836
  Beta  occ. eigenvalues --   -0.69142  -0.68525  -0.67854  -0.67058  -0.66239
  Beta  occ. eigenvalues --   -0.65695  -0.64285  -0.63955  -0.63791  -0.63508
  Beta  occ. eigenvalues --   -0.63251  -0.62857  -0.62715  -0.62393  -0.62162
  Beta  occ. eigenvalues --   -0.61929  -0.61633  -0.61319  -0.60792  -0.60669
  Beta  occ. eigenvalues --   -0.60443  -0.60293  -0.59499  -0.59166  -0.58967
  Beta  occ. eigenvalues --   -0.58472  -0.58337  -0.58161  -0.57926  -0.57561
  Beta  occ. eigenvalues --   -0.57176  -0.56940  -0.56835  -0.56317  -0.56191
  Beta  occ. eigenvalues --   -0.55834  -0.55681  -0.55569  -0.55243  -0.54635
  Beta  occ. eigenvalues --   -0.54408  -0.53541  -0.53150  -0.52125  -0.52041
  Beta  occ. eigenvalues --   -0.51292  -0.50551  -0.48574  -0.47908
  Beta virt. eigenvalues --   -0.36267  -0.14223  -0.12134  -0.04574  -0.03753
  Beta virt. eigenvalues --   -0.02361  -0.00636   0.01081   0.02282   0.04044
  Beta virt. eigenvalues --    0.06374   0.07276   0.08146   0.09355   0.10760

 Mulliken charges and spin densities:
               1          2
     1  O   -0.344869   0.297428
     2  C    0.878782  -0.042102
     3  N   -0.600061   0.051873
     4  C    0.900914  -0.064013
     5  O   -0.250324   0.547825
     6  N   -0.625979   0.031862
     7  C    0.740786  -0.004088
     8  F   -0.240056   0.003225
     9  F   -0.227287   0.017062
    10  C    0.451693   0.000357
    11  F   -0.240412   0.003170
    12  O   -0.501699   0.000261
    13  C    1.004248  -0.000028
    14  F   -0.240028   0.000018
    15  F   -0.237852   0.000042
    16  F   -0.227561  -0.000004
    17  C    0.812583  -0.000364
    18  F   -0.226272   0.001752
    19  F   -0.235261   0.000218
    20  F   -0.260732   0.000287
    21  C    0.889440  -0.025801
    22  O   -0.351106   0.137845
    23  N   -0.618440   0.016465
    24  C    0.775632  -0.000924
    25  F   -0.241988   0.000786
    26  F   -0.246992   0.002328
    27  C    0.407246  -0.002834
    28  F   -0.251619   0.000994
    29  O   -0.479312   0.028720
    30  C    1.009030  -0.001582
    31  F   -0.233004   0.000859
    32  F   -0.226193   0.000136
    33  F   -0.252368   0.001179
    34  C    0.816363   0.000138
    35  F   -0.232602  -0.000006
    36  F   -0.232312   0.000033
    37  F   -0.248691  -0.000004
    38  H    0.386303  -0.003113
 Sum of Mulliken charges =   1.00000   1.00000

 Dipole moment (field-independent basis, Debye):
    X=             -0.6999    Y=              6.1642    Z=             -2.7909  Tot=              6.8027
 Quadrupole moment (field-independent basis, Debye-Ang):
   XX=           -173.3208   YY=           -177.1690   ZZ=           -185.2540
   XY=             -0.6365   XZ=              0.0218   YZ=             -4.6800

 Normal termination of Gaussian 09 at Tue Mar  5 12:14:04 2024.
