 Gaussian 09, Revision D.01,
 Gaussian 09:  ES64L-G09RevD.01 24-Apr-2013

 ----------------------------------------------------------------------
 #p CAM-B3LYP/6-31G(d,p) SCRF=(PCM,Solvent=Generic,Read) NoSymm out=wfn
 ----------------------------------------------------------------------

 ---------------
 Title A949740_0
 ---------------
 Symbolic Z-matrix:
 Charge =  0 Multiplicity = 1

                          Input orientation:
 ---------------------------------------------------------------------
 Center     Atomic      Atomic             Coordinates (Angstroms)
 Number     Number       Type             X           Y           Z
 ---------------------------------------------------------------------
      1          8           0        2.275602    1.312915   -2.405940
      2          6           0        1.229568    0.945218   -1.884811
      3          7           0        0.105619    0.843876   -2.637759
      4          6           0       -1.079431    0.343314   -2.203369
      5          8           0       -2.067243    0.423675   -2.924645
      6          7           0       -1.064097   -0.221503   -0.955253
      7          6           0       -2.303464   -0.816986   -0.472682
      8          9           0       -2.032289   -1.776307    0.450394
      9          9           0       -2.843509   -1.537155   -1.508604
     10          6           0       -3.392076    0.165920    0.045017
     11          9           0       -3.337846    1.306227   -0.731019
     12          8           0       -4.740181   -0.282721   -0.165809
     13          6           0       -5.158262   -1.299921    0.706521
     14          9           0       -5.332338   -0.796507    1.937411
     15          9           0       -6.330917   -1.790056    0.268090
     16          9           0       -4.260321   -2.291318    0.743285
     17          6           0       -3.049859    0.604629    1.468035
     18          9           0       -4.009825    1.426112    1.960541
     19          9           0       -1.895320    1.310028    1.498303
     20          9           0       -2.930588   -0.427075    2.325020
     21          6           0       -0.007655   -0.057962   -0.089725
     22          8           0       -0.045639   -0.501246    1.053969
     23          7           0        1.098761    0.608168   -0.564781
     24          6           0        2.270603    0.775474    0.284751
     25          9           0        1.906554    0.851222    1.597312
     26          9           0        2.749181    2.033216    0.035068
     27          6           0        3.439545   -0.245732    0.150916
     28          9           0        3.937365   -0.262819   -1.119899
     29          8           0        4.565899   -0.045485    1.020521
     30          6           0        5.133567    1.233460    0.924388
     31          9           0        4.441015    2.080966    1.703577
     32          9           0        5.152379    1.675377   -0.341333
     33          9           0        6.398867    1.171827    1.380880
     34          6           0        2.885811   -1.635681    0.445693
     35          9           0        3.851080   -2.582852    0.331806
     36          9           0        1.909147   -1.982049   -0.428199
     37          9           0        2.382409   -1.740485    1.692376
     38          1           0        0.147890    1.182238   -3.590046
 ---------------------------------------------------------------------

 SCF Done:  E(RCAM-B3LYP) =  -2756.52205381     A.U. after   13 cycles

 Alpha  occ. eigenvalues --  -24.84774 -24.84339 -24.84283 -24.83889 -24.83861
 Alpha  occ. eigenvalues --  -24.83651 -24.83634 -24.83563 -24.83488 -24.83477
 Alpha  occ. eigenvalues --  -24.83367 -24.83195 -24.83140 -24.83095 -24.83055
 Alpha  occ. eigenvalues --  -24.83026 -24.82852 -24.82556 -19.33481 -19.33200
 Alpha  occ. eigenvalues --  -19.24896 -19.24399 -19.24292 -14.54196 -14.54121
 Alpha  occ. eigenvalues --  -14.50914 -10.59974 -10.59477 -10.55769 -10.55769
 Alpha  occ. eigenvalues --  -10.54262 -10.53865 -10.49521 -10.49405 -10.47802
 Alpha  occ. eigenvalues --  -10.46474 -10.46404  -1.43826  -1.43043  -1.42321
 Alpha  occ. eigenvalues --   -1.42269  -1.39488  -1.39315  -1.35921  -1.35816
 Alpha  occ. eigenvalues --   -1.34321  -1.33840  -1.33623  -1.33357  -1.33224
 Alpha  occ. eigenvalues --   -1.32996  -1.32637  -1.32488  -1.31958  -1.31732
 Alpha  occ. eigenvalues --   -1.24334  -1.20876  -1.20606  -1.18824  -1.18588
 Alpha  occ. eigenvalues --   -1.10966  -1.09624  -1.06849  -0.94255  -0.93483
 Alpha  occ. eigenvalues --   -0.86882  -0.85000  -0.82792  -0.81971  -0.81065
 Alpha  occ. eigenvalues --   -0.80438  -0.78084  -0.76286  -0.75306  -0.74604
 Alpha  occ. eigenvalues --   -0.73702  -0.72719  -0.71908  -0.71655  -0.70929
 Alpha  occ. eigenvalues --   -0.70541  -0.70162  -0.69504  -0.69175  -0.68663
 Alpha  occ. eigenvalues --   -0.68247  -0.68123  -0.67781  -0.66103  -0.65919
 Alpha  occ. eigenvalues --   -0.65155  -0.64544  -0.63422  -0.63222  -0.60286
 Alpha  occ. eigenvalues --   -0.59318  -0.57995  -0.57869  -0.57566  -0.57555
 Alpha  occ. eigenvalues --   -0.57278  -0.56981  -0.56859  -0.56527  -0.56258
 Alpha  occ. eigenvalues --   -0.55655  -0.55498  -0.55164  -0.55105  -0.54941
 Alpha  occ. eigenvalues --   -0.54775  -0.54424  -0.54319  -0.53981  -0.53739
 Alpha  occ. eigenvalues --   -0.53521  -0.53254  -0.52978  -0.52561  -0.52347
 Alpha  occ. eigenvalues --   -0.52094  -0.51933  -0.51741  -0.51386  -0.51110
 Alpha  occ. eigenvalues --   -0.51007  -0.50878  -0.50582  -0.50247  -0.50057
 Alpha  occ. eigenvalues --   -0.49957  -0.49395  -0.49201  -0.49096  -0.48723
 Alpha  occ. eigenvalues --   -0.48076  -0.46043  -0.45009  -0.44288  -0.40783
 Alpha  occ. eigenvalues --   -0.40105  -0.39942  -0.39520  -0.38360  -0.36458
 Alpha virt. eigenvalues --   -0.00121  -0.00069   0.04977   0.05511   0.06544
 Alpha virt. eigenvalues --    0.06935   0.10680   0.11453   0.13797   0.15486
 Alpha virt. eigenvalues --    0.16105   0.18388   0.19377   0.19800   0.20639

 Mulliken charges:
               1
     1  O   -0.479992
     2  C    0.799544
     3  N   -0.612416
     4  C    0.809558
     5  O   -0.482749
     6  N   -0.634067
     7  C    0.759120
     8  F   -0.240901
     9  F   -0.266638
    10  C    0.438414
    11  F   -0.272199
    12  O   -0.493484
    13  C    0.977150
    14  F   -0.239674
    15  F   -0.235571
    16  F   -0.234361
    17  C    0.816421
    18  F   -0.255700
    19  F   -0.246300
    20  F   -0.240097
    21  C    0.844449
    22  O   -0.479602
    23  N   -0.639804
    24  C    0.759034
    25  F   -0.240289
    26  F   -0.262779
    27  C    0.436622
    28  F   -0.253163
    29  O   -0.513670
    30  C    0.998420
    31  F   -0.244169
    32  F   -0.238951
    33  F   -0.239884
    34  C    0.806043
    35  F   -0.249605
    36  F   -0.255540
    37  F   -0.232247
    38  H    0.339079
 Sum of Mulliken charges =   0.00000

 Dipole moment (field-independent basis, Debye):
    X=             -0.1563    Y=              0.3929    Z=             -1.2425  Tot=              1.3125
 Quadrupole moment (field-independent basis, Debye-Ang):
   XX=           -205.8168   YY=           -193.5681   ZZ=           -195.7308
   XY=             -0.9736   XZ=             -3.5646   YZ=              0.5226

 Normal termination of Gaussian 09 at Tue Mar  5 16:48:02 2024.
