 Gaussian 09, Revision D.01,
 Gaussian 09:  ES64L-G09RevD.01 24-Apr-2013

 ----------------------------------------------------------------------
 #p CAM-B3LYP/6-31G(d,p) SCRF=(PCM,Solvent=Generic,Read) NoSymm out=wfn
 ----------------------------------------------------------------------

 ------------------
 Title A230421852_0
 ------------------
 Symbolic Z-matrix:
 Charge =  0 Multiplicity = 1

                          Input orientation:
 ---------------------------------------------------------------------
 Center     Atomic      Atomic             Coordinates (Angstroms)
 Number     Number       Type             X           Y           Z
 ---------------------------------------------------------------------
      1          6           0        0.668932    4.246519    0.412976
      2          6           0        0.148713    3.567897   -0.846479
      3          7           0        0.081771    2.114760   -0.690452
      4          6           0        1.184939    1.364087   -1.040635
      5          8           0        2.265268    1.885503   -1.306098
      6          7           0        0.996009    0.005739   -1.055810
      7          6           0        2.108268   -0.818192   -1.514856
      8          9           0        2.633259   -0.246592   -2.636605
      9          9           0        1.615995   -2.005674   -1.972274
     10          6           0        3.220472   -1.075444   -0.465194
     11          9           0        3.819032    0.108757   -0.144451
     12          8           0        2.628706   -1.538049    0.754720
     13          6           0        3.567492   -2.029066    1.674989
     14          9           0        4.627667   -1.211918    1.765344
     15          9           0        3.957006   -3.257706    1.301346
     16          9           0        2.978267   -2.108203    2.882142
     17          6           0        4.229562   -2.001060   -1.159724
     18          9           0        3.709272   -3.225477   -1.399143
     19          9           0        4.668723   -1.510794   -2.339150
     20          9           0        5.333934   -2.191911   -0.397643
     21          6           0        0.008248   -0.592773   -0.312705
     22          8           0       -0.006266   -1.804906   -0.112821
     23          7           0       -0.959019    0.233700    0.211057
     24          6           0       -2.074486   -0.384822    0.916401
     25          9           0       -2.651215    0.514353    1.757544
     26          9           0       -1.547835   -1.309650    1.783719
     27          6           0       -3.146022   -1.101674    0.045429
     28          9           0       -2.499964   -1.700447   -1.017510
     29          8           0       -3.773230   -2.222741    0.689372
     30          6           0       -4.710752   -1.879996    1.676178
     31          9           0       -4.188742   -1.003976    2.542576
     32          9           0       -5.062512   -2.993689    2.342523
     33          9           0       -5.803845   -1.356754    1.101688
     34          6           0       -4.093853   -0.069728   -0.563762
     35          9           0       -4.695478    0.705523    0.358404
     36          9           0       -3.447536    0.737399   -1.436300
     37          9           0       -5.075155   -0.682242   -1.272804
     38          6           0       -1.035898    1.566846   -0.098521
     39          8           0       -2.038675    2.236459    0.138359
     40          1           0        0.018744    4.040666    1.269502
     41          1           0        0.712689    5.330503    0.269762
     42          1           0        1.674099    3.893576    0.665352
     43          1           0        0.801315    3.815049   -1.691621
     44          1           0       -0.847900    3.956146   -1.084824
 ---------------------------------------------------------------------

 SCF Done:  E(RCAM-B3LYP) =  -2835.10798376     A.U. after   13 cycles

 Alpha  occ. eigenvalues --  -24.84126 -24.83772 -24.83767 -24.83733 -24.83678
 Alpha  occ. eigenvalues --  -24.83623 -24.83542 -24.83442 -24.83427 -24.83381
 Alpha  occ. eigenvalues --  -24.83115 -24.83108 -24.82954 -24.82916 -24.82914
 Alpha  occ. eigenvalues --  -24.82827 -24.82762 -24.81972 -19.33272 -19.33219
 Alpha  occ. eigenvalues --  -19.24250 -19.24146 -19.23835 -14.53267 -14.53058
 Alpha  occ. eigenvalues --  -14.50422 -10.59797 -10.59722 -10.55510 -10.55461
 Alpha  occ. eigenvalues --  -10.53573 -10.53401 -10.49237 -10.49149 -10.46915
 Alpha  occ. eigenvalues --  -10.45779 -10.45714 -10.31788 -10.26109  -1.43623
 Alpha  occ. eigenvalues --   -1.43367  -1.41937  -1.41846  -1.39225  -1.38911
 Alpha  occ. eigenvalues --   -1.35772  -1.35568  -1.34125  -1.33682  -1.33599
 Alpha  occ. eigenvalues --   -1.33418  -1.32917  -1.32877  -1.32310  -1.32234
 Alpha  occ. eigenvalues --   -1.31715  -1.31283  -1.23348  -1.20749  -1.20647
 Alpha  occ. eigenvalues --   -1.17992  -1.17878  -1.10077  -1.08645  -1.06626
 Alpha  occ. eigenvalues --   -0.93881  -0.93127  -0.87876  -0.85392  -0.84319
 Alpha  occ. eigenvalues --   -0.82535  -0.82173  -0.79901  -0.79082  -0.77243
 Alpha  occ. eigenvalues --   -0.75870  -0.74764  -0.74210  -0.73413  -0.73025
 Alpha  occ. eigenvalues --   -0.71949  -0.71434  -0.71186  -0.70565  -0.70211
 Alpha  occ. eigenvalues --   -0.69832  -0.69071  -0.68777  -0.68514  -0.67885
 Alpha  occ. eigenvalues --   -0.67548  -0.66654  -0.66187  -0.65132  -0.64751
 Alpha  occ. eigenvalues --   -0.63903  -0.62393  -0.60065  -0.59105  -0.58627
 Alpha  occ. eigenvalues --   -0.57805  -0.57605  -0.57330  -0.57243  -0.57085
 Alpha  occ. eigenvalues --   -0.56671  -0.56326  -0.56182  -0.55925  -0.55645
 Alpha  occ. eigenvalues --   -0.55371  -0.55137  -0.55058  -0.54825  -0.54553
 Alpha  occ. eigenvalues --   -0.54471  -0.54242  -0.53855  -0.53769  -0.53242
 Alpha  occ. eigenvalues --   -0.53029  -0.52654  -0.52513  -0.52355  -0.52002
 Alpha  occ. eigenvalues --   -0.51592  -0.51565  -0.51161  -0.51038  -0.50795
 Alpha  occ. eigenvalues --   -0.50676  -0.50516  -0.50121  -0.50043  -0.49933
 Alpha  occ. eigenvalues --   -0.49737  -0.49112  -0.49032  -0.48926  -0.48503
 Alpha  occ. eigenvalues --   -0.47919  -0.46683  -0.45964  -0.45293  -0.44757
 Alpha  occ. eigenvalues --   -0.44052  -0.42635  -0.40159  -0.39437  -0.39267
 Alpha  occ. eigenvalues --   -0.38323  -0.36449  -0.35834
 Alpha virt. eigenvalues --    0.00249   0.00638   0.05393   0.05579   0.06681
 Alpha virt. eigenvalues --    0.08480   0.11278   0.13588   0.14773   0.15645
 Alpha virt. eigenvalues --    0.16548   0.17345   0.18080   0.18757   0.19619

 Mulliken charges:
               1
     1  C   -0.328802
     2  C   -0.067632
     3  N   -0.575451
     4  C    0.829160
     5  O   -0.494864
     6  N   -0.655593
     7  C    0.759659
     8  F   -0.256833
     9  F   -0.251931
    10  C    0.438019
    11  F   -0.254551
    12  O   -0.508376
    13  C    0.997498
    14  F   -0.242882
    15  F   -0.242374
    16  F   -0.238635
    17  C    0.813743
    18  F   -0.245324
    19  F   -0.243833
    20  F   -0.259154
    21  C    0.871935
    22  O   -0.491859
    23  N   -0.645531
    24  C    0.758391
    25  F   -0.246067
    26  F   -0.269021
    27  C    0.436304
    28  F   -0.272212
    29  O   -0.495603
    30  C    0.977880
    31  F   -0.234225
    32  F   -0.236727
    33  F   -0.240075
    34  C    0.818654
    35  F   -0.243250
    36  F   -0.245299
    37  F   -0.258309
    38  C    0.842276
    39  O   -0.504905
    40  H    0.127796
    41  H    0.130983
    42  H    0.130641
    43  H    0.156332
    44  H    0.160047
 Sum of Mulliken charges =   0.00000

 Dipole moment (field-independent basis, Debye):
    X=             -0.0234    Y=              3.0801    Z=             -0.0700  Tot=              3.0810
 Quadrupole moment (field-independent basis, Debye-Ang):
   XX=           -217.9294   YY=           -205.7637   ZZ=           -205.6876
   XY=              1.5880   XZ=              4.4880   YZ=             -2.1509

 Normal termination of Gaussian 09 at Sun Mar  3 18:09:58 2024.
