 Gaussian 09, Revision D.01,
 Gaussian 09:  ES64L-G09RevD.01 24-Apr-2013

 ----------------------------------------------------------------------
 #p CAM-B3LYP/6-31G(d,p) SCRF=(PCM,Solvent=Generic,Read) NoSymm out=wfn
 ----------------------------------------------------------------------

 -------------------
 Title A230421852_p1
 -------------------
 Symbolic Z-matrix:
 Charge =  1 Multiplicity = 2

                          Input orientation:
 ---------------------------------------------------------------------
 Center     Atomic      Atomic             Coordinates (Angstroms)
 Number     Number       Type             X           Y           Z
 ---------------------------------------------------------------------
      1          6           0        0.668932    4.246519    0.412976
      2          6           0        0.148713    3.567897   -0.846479
      3          7           0        0.081771    2.114760   -0.690452
      4          6           0        1.184939    1.364087   -1.040635
      5          8           0        2.265268    1.885503   -1.306098
      6          7           0        0.996009    0.005739   -1.055810
      7          6           0        2.108268   -0.818192   -1.514856
      8          9           0        2.633259   -0.246592   -2.636605
      9          9           0        1.615995   -2.005674   -1.972274
     10          6           0        3.220472   -1.075444   -0.465194
     11          9           0        3.819032    0.108757   -0.144451
     12          8           0        2.628706   -1.538049    0.754720
     13          6           0        3.567492   -2.029066    1.674989
     14          9           0        4.627667   -1.211918    1.765344
     15          9           0        3.957006   -3.257706    1.301346
     16          9           0        2.978267   -2.108203    2.882142
     17          6           0        4.229562   -2.001060   -1.159724
     18          9           0        3.709272   -3.225477   -1.399143
     19          9           0        4.668723   -1.510794   -2.339150
     20          9           0        5.333934   -2.191911   -0.397643
     21          6           0        0.008248   -0.592773   -0.312705
     22          8           0       -0.006266   -1.804906   -0.112821
     23          7           0       -0.959019    0.233700    0.211057
     24          6           0       -2.074486   -0.384822    0.916401
     25          9           0       -2.651215    0.514353    1.757544
     26          9           0       -1.547835   -1.309650    1.783719
     27          6           0       -3.146022   -1.101674    0.045429
     28          9           0       -2.499964   -1.700447   -1.017510
     29          8           0       -3.773230   -2.222741    0.689372
     30          6           0       -4.710752   -1.879996    1.676178
     31          9           0       -4.188742   -1.003976    2.542576
     32          9           0       -5.062512   -2.993689    2.342523
     33          9           0       -5.803845   -1.356754    1.101688
     34          6           0       -4.093853   -0.069728   -0.563762
     35          9           0       -4.695478    0.705523    0.358404
     36          9           0       -3.447536    0.737399   -1.436300
     37          9           0       -5.075155   -0.682242   -1.272804
     38          6           0       -1.035898    1.566846   -0.098521
     39          8           0       -2.038675    2.236459    0.138359
     40          1           0        0.018744    4.040666    1.269502
     41          1           0        0.712689    5.330503    0.269762
     42          1           0        1.674099    3.893576    0.665352
     43          1           0        0.801315    3.815049   -1.691621
     44          1           0       -0.847900    3.956146   -1.084824
 ---------------------------------------------------------------------

 SCF Done:  E(UCAM-B3LYP) =  -2834.77903164     A.U. after   40 cycles

 Alpha  occ. eigenvalues --  -24.87628 -24.87379 -24.87253 -24.86968 -24.86497
 Alpha  occ. eigenvalues --  -24.86341 -24.86272 -24.86258 -24.85963 -24.85875
 Alpha  occ. eigenvalues --  -24.85702 -24.85657 -24.85625 -24.85509 -24.85437
 Alpha  occ. eigenvalues --  -24.85290 -24.85273 -24.84964 -19.37244 -19.36565
 Alpha  occ. eigenvalues --  -19.36106 -19.35862 -19.30324 -14.68004 -14.60255
 Alpha  occ. eigenvalues --  -14.60253 -10.61973 -10.61856 -10.58424 -10.58168
 Alpha  occ. eigenvalues --  -10.57965 -10.57911 -10.55929 -10.55644 -10.52942
 Alpha  occ. eigenvalues --  -10.52544 -10.52535 -10.41056 -10.33518  -1.45832
 Alpha  occ. eigenvalues --   -1.45539  -1.44747  -1.44340  -1.43139  -1.43067
 Alpha  occ. eigenvalues --   -1.39101  -1.38692  -1.36419  -1.36307  -1.36110
 Alpha  occ. eigenvalues --   -1.35744  -1.35440  -1.35411  -1.35178  -1.34887
 Alpha  occ. eigenvalues --   -1.34713  -1.34359  -1.33531  -1.29014  -1.25958
 Alpha  occ. eigenvalues --   -1.23576  -1.23195  -1.21229  -1.16426  -1.16232
 Alpha  occ. eigenvalues --   -0.98434  -0.96950  -0.96120  -0.92478  -0.90953
 Alpha  occ. eigenvalues --   -0.87282  -0.85740  -0.85010  -0.84424  -0.83385
 Alpha  occ. eigenvalues --   -0.81822  -0.79408  -0.79114  -0.76877  -0.76209
 Alpha  occ. eigenvalues --   -0.75514  -0.75458  -0.74272  -0.73597  -0.72955
 Alpha  occ. eigenvalues --   -0.72834  -0.72416  -0.72103  -0.71495  -0.71259
 Alpha  occ. eigenvalues --   -0.70899  -0.70796  -0.69881  -0.69614  -0.69029
 Alpha  occ. eigenvalues --   -0.68541  -0.67750  -0.67338  -0.65830  -0.64759
 Alpha  occ. eigenvalues --   -0.63589  -0.63201  -0.62789  -0.61634  -0.60700
 Alpha  occ. eigenvalues --   -0.60572  -0.60283  -0.60015  -0.59873  -0.59794
 Alpha  occ. eigenvalues --   -0.59563  -0.59085  -0.58979  -0.58672  -0.58314
 Alpha  occ. eigenvalues --   -0.58199  -0.57785  -0.57746  -0.57514  -0.57116
 Alpha  occ. eigenvalues --   -0.56901  -0.56495  -0.56187  -0.55553  -0.55309
 Alpha  occ. eigenvalues --   -0.55205  -0.54949  -0.54593  -0.54294  -0.54271
 Alpha  occ. eigenvalues --   -0.53926  -0.53340  -0.53221  -0.53165  -0.52901
 Alpha  occ. eigenvalues --   -0.52749  -0.52384  -0.52250  -0.51937  -0.51800
 Alpha  occ. eigenvalues --   -0.51583  -0.51229  -0.50920  -0.50694  -0.50335
 Alpha  occ. eigenvalues --   -0.49678  -0.49380  -0.48662  -0.48363  -0.47563
 Alpha  occ. eigenvalues --   -0.46075  -0.44605  -0.43341
 Alpha virt. eigenvalues --   -0.09468  -0.07182   0.00137   0.01386   0.02291
 Alpha virt. eigenvalues --    0.03171   0.05898   0.08181   0.08717   0.10061
 Alpha virt. eigenvalues --    0.10762   0.12636   0.13695   0.13846   0.14353

  Beta  occ. eigenvalues --  -24.87610 -24.87367 -24.87243 -24.86965 -24.86497
  Beta  occ. eigenvalues --  -24.86341 -24.86272 -24.86257 -24.85962 -24.85875
  Beta  occ. eigenvalues --  -24.85701 -24.85657 -24.85625 -24.85509 -24.85437
  Beta  occ. eigenvalues --  -24.85290 -24.85272 -24.84964 -19.36489 -19.36105
  Beta  occ. eigenvalues --  -19.35862 -19.35835 -19.30313 -14.66767 -14.60296
  Beta  occ. eigenvalues --  -14.60270 -10.61973 -10.61856 -10.58425 -10.58168
  Beta  occ. eigenvalues --  -10.57965 -10.57910 -10.56153 -10.55881 -10.52952
  Beta  occ. eigenvalues --  -10.52545 -10.52536 -10.41028 -10.33362  -1.45830
  Beta  occ. eigenvalues --   -1.45538  -1.44742  -1.44333  -1.43125  -1.43054
  Beta  occ. eigenvalues --   -1.39100  -1.38692  -1.36409  -1.36284  -1.36107
  Beta  occ. eigenvalues --   -1.35744  -1.35439  -1.35394  -1.35177  -1.34883
  Beta  occ. eigenvalues --   -1.34708  -1.34359  -1.32504  -1.27896  -1.25600
  Beta  occ. eigenvalues --   -1.23569  -1.23193  -1.19086  -1.16052  -1.15900
  Beta  occ. eigenvalues --   -0.98266  -0.96910  -0.95738  -0.92113  -0.90909
  Beta  occ. eigenvalues --   -0.86936  -0.85576  -0.84986  -0.84341  -0.83293
  Beta  occ. eigenvalues --   -0.81523  -0.79172  -0.79096  -0.76747  -0.76183
  Beta  occ. eigenvalues --   -0.75489  -0.75414  -0.74254  -0.73481  -0.72924
  Beta  occ. eigenvalues --   -0.72409  -0.72130  -0.71554  -0.71458  -0.71200
  Beta  occ. eigenvalues --   -0.70859  -0.70181  -0.69844  -0.69238  -0.68968
  Beta  occ. eigenvalues --   -0.68499  -0.67366  -0.66980  -0.65050  -0.64061
  Beta  occ. eigenvalues --   -0.62948  -0.62356  -0.61955  -0.61403  -0.60496
  Beta  occ. eigenvalues --   -0.60397  -0.60152  -0.59869  -0.59741  -0.59685
  Beta  occ. eigenvalues --   -0.59485  -0.59013  -0.58940  -0.58538  -0.58241
  Beta  occ. eigenvalues --   -0.58061  -0.57761  -0.57732  -0.57439  -0.56969
  Beta  occ. eigenvalues --   -0.56792  -0.56255  -0.55696  -0.55422  -0.55158
  Beta  occ. eigenvalues --   -0.55010  -0.54634  -0.54487  -0.54243  -0.54074
  Beta  occ. eigenvalues --   -0.53675  -0.53247  -0.53194  -0.53061  -0.52804
  Beta  occ. eigenvalues --   -0.52380  -0.52252  -0.51982  -0.51856  -0.51769
  Beta  occ. eigenvalues --   -0.51419  -0.51217  -0.50779  -0.49702  -0.49309
  Beta  occ. eigenvalues --   -0.48561  -0.47832  -0.47640  -0.47342  -0.45487
  Beta  occ. eigenvalues --   -0.44151  -0.43096
  Beta virt. eigenvalues --   -0.29594  -0.08232  -0.05965   0.00714   0.01397
  Beta virt. eigenvalues --    0.02373   0.03342   0.06028   0.08526   0.08799
  Beta virt. eigenvalues --    0.10373   0.10807   0.12715   0.13869   0.13949

 Mulliken charges and spin densities:
               1          2
     1  C   -0.338751   0.082657
     2  C   -0.126132   0.010103
     3  N   -0.439612   0.564821
     4  C    0.887838  -0.131484
     5  O   -0.342101   0.295439
     6  N   -0.657964  -0.001197
     7  C    0.760584  -0.001030
     8  F   -0.246162   0.003689
     9  F   -0.235915   0.000679
    10  C    0.440007  -0.000014
    11  F   -0.253619   0.000005
    12  O   -0.511491   0.000077
    13  C    1.002439   0.000006
    14  F   -0.239818   0.000003
    15  F   -0.237318  -0.000002
    16  F   -0.235065   0.000001
    17  C    0.822100   0.000007
    18  F   -0.240310  -0.000002
    19  F   -0.240493   0.000051
    20  F   -0.252514   0.000048
    21  C    0.901717  -0.004420
    22  O   -0.436319   0.004672
    23  N   -0.650433  -0.011622
    24  C    0.758731  -0.000031
    25  F   -0.237720   0.002349
    26  F   -0.253558   0.000249
    27  C    0.443874  -0.000650
    28  F   -0.267432   0.000058
    29  O   -0.486165   0.000045
    30  C    0.982255  -0.000019
    31  F   -0.234462   0.000074
    32  F   -0.231358   0.000004
    33  F   -0.236541   0.000001
    34  C    0.820201  -0.000236
    35  F   -0.238418  -0.000020
    36  F   -0.249957   0.001995
    37  F   -0.248641   0.000198
    38  C    0.894056  -0.136061
    39  O   -0.357262   0.287570
    40  H    0.171180  -0.002669
    41  H    0.197827   0.004926
    42  H    0.171741  -0.002431
    43  H    0.232289   0.013230
    44  H    0.238692   0.018931
 Sum of Mulliken charges =   1.00000   1.00000

 Dipole moment (field-independent basis, Debye):
    X=              0.6316    Y=             11.8114    Z=             -2.3029  Tot=             12.0504
 Quadrupole moment (field-independent basis, Debye-Ang):
   XX=           -197.8377   YY=           -167.7633   ZZ=           -196.8204
   XY=              3.1049   XZ=              0.2452   YZ=             -6.6312

 Normal termination of Gaussian 09 at Sun Mar  3 18:12:38 2024.
