 Gaussian 09, Revision D.01,
 Gaussian 09:  ES64L-G09RevD.01 24-Apr-2013

 ----------------------------------------------------------------------
 #p CAM-B3LYP/6-31G(d,p) SCRF=(PCM,Solvent=Generic,Read) NoSymm out=wfn
 ----------------------------------------------------------------------

 ------------------
 Title A153226992_0
 ------------------
 Symbolic Z-matrix:
 Charge =  0 Multiplicity = 1

                          Input orientation:
 ---------------------------------------------------------------------
 Center     Atomic      Atomic             Coordinates (Angstroms)
 Number     Number       Type             X           Y           Z
 ---------------------------------------------------------------------
      1          6           0       -2.983903    2.388394    0.026507
      2          7           0       -2.291611    1.113374   -0.057987
      3          6           0       -2.781058    0.063630    0.689854
      4          8           0       -3.777025    0.178156    1.405707
      5          7           0       -2.054905   -1.106764    0.626686
      6          6           0       -2.492090   -2.221678    1.449985
      7          6           0       -0.826529   -1.198498    0.006354
      8          8           0       -0.075566   -2.151496    0.215341
      9          7           0       -0.479249   -0.154218   -0.813432
     10          6           0        0.814990   -0.212996   -1.475112
     11          9           0        1.020509   -1.486509   -1.923727
     12          9           0        0.742947    0.512675   -2.629218
     13          6           0        2.027926    0.249261   -0.624163
     14          9           0        1.909951    1.582387   -0.354276
     15          8           0        1.998095   -0.394877    0.654425
     16          6           0        3.179295   -0.224925    1.390842
     17          9           0        4.126993   -1.044837    0.909643
     18          9           0        3.599930    1.048330    1.345647
     19          9           0        2.933096   -0.553455    2.672798
     20          6           0        3.258753    0.005878   -1.509347
     21          9           0        3.485714   -1.311875   -1.709282
     22          9           0        3.158762    0.587346   -2.724463
     23          9           0        4.383483    0.509399   -0.944150
     24          6           0       -1.071705    1.076852   -0.699157
     25          8           0       -0.534014    2.104228   -1.110315
     26          1           0       -2.613051    2.924499    0.905958
     27          1           0       -4.063011    2.239946    0.129567
     28          1           0       -2.796526    2.994039   -0.865266
     29          1           0       -2.137704   -3.172038    1.039601
     30          1           0       -3.583793   -2.253119    1.515782
     31          1           0       -2.078704   -2.091108    2.455198
 ---------------------------------------------------------------------

 SCF Done:  E(RCAM-B3LYP) =  -1709.81288641     A.U. after   13 cycles

 Alpha  occ. eigenvalues --  -24.83563 -24.83454 -24.83340 -24.83210 -24.82852
 Alpha  occ. eigenvalues --  -24.82586 -24.82488 -24.82480 -24.82451 -19.32859
 Alpha  occ. eigenvalues --  -19.23015 -19.22934 -19.22561 -14.51896 -14.49558
 Alpha  occ. eigenvalues --  -14.49530 -10.59489 -10.55216 -10.52874 -10.48735
 Alpha  occ. eigenvalues --  -10.44808 -10.44772 -10.43729 -10.30701 -10.30680
 Alpha  occ. eigenvalues --   -1.43149  -1.41586  -1.38641  -1.35375  -1.33462
 Alpha  occ. eigenvalues --   -1.33211  -1.32582  -1.31986  -1.31178  -1.21595
 Alpha  occ. eigenvalues --   -1.20398  -1.16474  -1.16211  -1.08517  -1.06277
 Alpha  occ. eigenvalues --   -1.04811  -0.93210  -0.85710  -0.82938  -0.82699
 Alpha  occ. eigenvalues --   -0.81654  -0.77670  -0.75377  -0.75053  -0.72856
 Alpha  occ. eigenvalues --   -0.72500  -0.71811  -0.70326  -0.69581  -0.68380
 Alpha  occ. eigenvalues --   -0.67391  -0.66707  -0.66191  -0.64228  -0.61600
 Alpha  occ. eigenvalues --   -0.59726  -0.59294  -0.57455  -0.57018  -0.56121
 Alpha  occ. eigenvalues --   -0.55837  -0.55474  -0.55392  -0.55067  -0.54843
 Alpha  occ. eigenvalues --   -0.54645  -0.53922  -0.53466  -0.53040  -0.53014
 Alpha  occ. eigenvalues --   -0.52716  -0.52187  -0.51856  -0.51361  -0.50478
 Alpha  occ. eigenvalues --   -0.50255  -0.49745  -0.49619  -0.48840  -0.48720
 Alpha  occ. eigenvalues --   -0.47702  -0.47412  -0.47363  -0.47029  -0.45518
 Alpha  occ. eigenvalues --   -0.44360  -0.39440  -0.38988  -0.37464  -0.35962
 Alpha  occ. eigenvalues --   -0.34997  -0.34909
 Alpha virt. eigenvalues --    0.01896   0.02660   0.06057   0.09396   0.12122
 Alpha virt. eigenvalues --    0.14320   0.15395   0.17335   0.17614   0.17768
 Alpha virt. eigenvalues --    0.18180   0.19827   0.20400   0.21943   0.22149

 Mulliken charges:
               1
     1  C   -0.180982
     2  N   -0.562211
     3  C    0.811505
     4  O   -0.521963
     5  N   -0.562863
     6  C   -0.180702
     7  C    0.827109
     8  O   -0.507623
     9  N   -0.632204
    10  C    0.762080
    11  F   -0.257449
    12  F   -0.260312
    13  C    0.437644
    14  F   -0.255543
    15  O   -0.505224
    16  C    0.995160
    17  F   -0.243668
    18  F   -0.243345
    19  F   -0.240368
    20  C    0.811434
    21  F   -0.246536
    22  F   -0.244339
    23  F   -0.260800
    24  C    0.814128
    25  O   -0.506482
    26  H    0.155014
    27  H    0.161614
    28  H    0.160440
    29  H    0.160131
    30  H    0.161386
    31  H    0.154969
 Sum of Mulliken charges =   0.00000

 Dipole moment (field-independent basis, Debye):
    X=             -2.7710    Y=             -0.0437    Z=              0.7800  Tot=              2.8790
 Quadrupole moment (field-independent basis, Debye-Ang):
   XX=           -135.9338   YY=           -135.5658   ZZ=           -136.4898
   XY=              1.2376   XZ=              5.8710   YZ=              0.4861

 Normal termination of Gaussian 09 at Sun Mar  3 17:24:42 2024.
