 Gaussian 09, Revision D.01,
 Gaussian 09:  ES64L-G09RevD.01 24-Apr-2013

 ----------------------------------------------------------------------
 #p CAM-B3LYP/6-31G(d,p) SCRF=(PCM,Solvent=Generic,Read) NoSymm out=wfn
 ----------------------------------------------------------------------

 --------------
 Title D2D1_neu
 --------------
 Symbolic Z-matrix:
 Charge =  0 Multiplicity = 1

                          Input orientation:
 ---------------------------------------------------------------------
 Center     Atomic      Atomic             Coordinates (Angstroms)
 Number     Number       Type             X           Y           Z
 ---------------------------------------------------------------------
      1          8           0       -5.729058    0.829637   -0.316425
      2          6           0       -4.521887    0.623916   -0.457766
      3          7           0       -3.934795    0.571722   -1.704194
      4          6           0       -4.771368    0.842009   -2.872637
      5          6           0       -4.811396    2.341896   -3.193207
      6          6           0       -5.650281    2.703209   -4.420796
      7          6           0       -7.137857    2.345766   -4.396197
      8          9           0       -7.257874    0.989458   -4.329422
      9          9           0       -7.647562    2.690278   -5.618646
     10          6           0       -7.975964    3.015356   -3.287187
     11          9           0       -9.285806    2.699618   -3.439235
     12          9           0       -7.868893    4.365587   -3.391534
     13          8           0       -7.548528    2.658940   -1.997983
     14          6           0       -8.556440    2.938003   -1.069626
     15          9           0       -8.011093    2.951072    0.165424
     16          9           0       -9.502243    1.980472   -1.104075
     17          9           0       -9.117077    4.143329   -1.284960
     18          6           0       -2.580790    0.408914   -1.896220
     19          8           0       -2.061291    0.543211   -3.005668
     20          7           0       -1.833034    0.113648   -0.778259
     21          6           0       -0.395705   -0.112020   -0.948745
     22          6           0        0.397174    1.204593   -0.976421
     23          7           0        1.842823    0.979782   -1.049256
     24          6           0        2.412191    0.794098   -2.289135
     25          8           0        1.727162    0.737888   -3.311207
     26          7           0        3.784308    0.660875   -2.322322
     27          6           0        4.436359    0.593740   -3.632010
     28          6           0        4.433910   -0.816674   -4.242581
     29          6           0        5.338004   -1.848640   -3.546546
     30          6           0        6.820906   -1.700285   -3.900765
     31          9           0        6.972126   -1.970262   -5.230008
     32          9           0        7.158057   -0.384219   -3.761873
     33          6           0        7.821329   -2.560440   -3.074113
     34          9           0        7.570887   -2.474520   -1.741897
     35          9           0        9.063333   -2.005100   -3.234730
     36          8           0        8.032459   -3.914146   -3.395069
     37          6           0        6.877172   -4.677784   -3.299926
     38          9           0        6.083325   -4.278693   -2.290783
     39          9           0        7.215635   -5.964073   -3.098278
     40          9           0        6.195129   -4.593721   -4.455058
     41          6           0        4.559430    0.552609   -1.187480
     42          8           0        5.781215    0.397232   -1.246012
     43          7           0        3.893499    0.605847    0.018266
     44          6           0        4.677467    0.474533    1.247279
     45          6           0        5.206992    1.832514    1.722237
     46          6           0        6.242489    1.744118    2.850939
     47          6           0        5.709088    1.122371    4.139046
     48          9           0        5.383208   -0.179708    3.901110
     49          9           0        4.551598    1.750624    4.483596
     50          6           0        6.727281    1.202174    5.292547
     51          9           0        7.875712    0.572776    4.937319
     52          9           0        7.044377    2.499723    5.538150
     53          8           0        6.221249    0.644332    6.481753
     54          6           0        7.274160    0.401417    7.367778
     55          9           0        7.933586   -0.716955    7.006988
     56          9           0        8.133270    1.435904    7.434213
     57          9           0        6.756715    0.203486    8.599415
     58          6           0        2.546341    0.874385    0.130067
     59          8           0        1.996414    1.013239    1.223311
     60          6           0       -2.342489    0.147920    0.501528
     61          8           0       -1.635066   -0.063203    1.487734
     62          7           0       -3.682885    0.447193    0.621152
     63          6           0       -4.258100    0.508888    1.962955
     64          6           0       -4.748659   -0.866294    2.429048
     65          6           0       -5.294713   -0.802060    3.854709
     66          6           0       -5.981873   -2.084379    4.323421
     67          9           0       -7.067384   -2.296831    3.530121
     68          9           0       -6.477013   -1.847449    5.573987
     69          6           0       -5.071157   -3.337568    4.359953
     70          9           0       -4.652306   -3.686597    3.115481
     71          9           0       -3.929525   -3.013975    5.037912
     72          8           0       -5.548351   -4.500022    4.991892
     73          6           0       -6.780200   -4.889949    4.461930
     74          9           0       -7.766133   -4.163262    5.014888
     75          9           0       -6.813183   -4.766938    3.123349
     76          9           0       -6.987579   -6.186053    4.773335
     77          1           0       -4.381098    0.288495   -3.734868
     78          1           0       -5.777731    0.463476   -2.673386
     79          1           0       -3.786640    2.689321   -3.377860
     80          1           0       -5.149757    2.910041   -2.320856
     81          1           0       -5.551742    3.779297   -4.609788
     82          1           0       -5.202575    2.210580   -5.293223
     83          1           0       -0.229670   -0.670777   -1.877873
     84          1           0       -0.025039   -0.751180   -0.138854
     85          1           0        0.163693    1.798369   -0.083872
     86          1           0        0.087361    1.809408   -1.837184
     87          1           0        3.894196    1.260694   -4.314750
     88          1           0        5.448838    0.999876   -3.561766
     89          1           0        3.407615   -1.205336   -4.230761
     90          1           0        4.723523   -0.740878   -5.298235
     91          1           0        4.981898   -2.827595   -3.876444
     92          1           0        5.194805   -1.809219   -2.463820
     93          1           0        4.046071    0.022146    2.019018
     94          1           0        5.513050   -0.213295    1.070683
     95          1           0        5.674659    2.354537    0.877745
     96          1           0        4.367512    2.464820    2.038489
     97          1           0        7.107512    1.171148    2.496286
     98          1           0        6.588573    2.763481    3.059993
     99          1           0       -5.089619    1.223517    1.970670
    100          1           0       -3.505903    0.893599    2.662343
    101          1           0       -5.524139   -1.234632    1.746320
    102          1           0       -3.918572   -1.579508    2.379878
    103          1           0       -6.028513    0.012226    3.915309
    104          1           0       -4.489130   -0.539095    4.552225
 ---------------------------------------------------------------------

 SCF Done:  E(RCAM-B3LYP) =  -5111.20947711     A.U. after   13 cycles

 Alpha  occ. eigenvalues --  -24.84368 -24.83756 -24.83525 -24.83281 -24.83225
 Alpha  occ. eigenvalues --  -24.83097 -24.82897 -24.82788 -24.82786 -24.82681
 Alpha  occ. eigenvalues --  -24.82532 -24.82485 -24.82475 -24.82460 -24.82032
 Alpha  occ. eigenvalues --  -24.82016 -24.81991 -24.81890 -24.81784 -24.81032
 Alpha  occ. eigenvalues --  -24.80706 -24.80636 -24.80460 -24.80453 -24.80238
 Alpha  occ. eigenvalues --  -24.80221 -24.80139 -24.80113 -19.32563 -19.32196
 Alpha  occ. eigenvalues --  -19.32082 -19.32078 -19.22319 -19.22249 -19.22194
 Alpha  occ. eigenvalues --  -19.22148 -19.22120 -19.22055 -14.49312 -14.49298
 Alpha  occ. eigenvalues --  -14.48979 -14.48935 -14.48904 -14.48843 -10.59668
 Alpha  occ. eigenvalues --  -10.58978 -10.58905 -10.58882 -10.52522 -10.52461
 Alpha  occ. eigenvalues --  -10.52441 -10.52437 -10.46338 -10.46202 -10.46142
 Alpha  occ. eigenvalues --  -10.46129 -10.43501 -10.43485 -10.43457 -10.43429
 Alpha  occ. eigenvalues --  -10.43388 -10.43311 -10.31985 -10.31965 -10.31395
 Alpha  occ. eigenvalues --  -10.31011 -10.30980 -10.30907 -10.28840 -10.28822
 Alpha  occ. eigenvalues --  -10.28815 -10.28191 -10.27749 -10.27696 -10.27599
 Alpha  occ. eigenvalues --  -10.27503  -1.43502  -1.42591  -1.42492  -1.42407
 Alpha  occ. eigenvalues --   -1.38753  -1.38608  -1.38377  -1.38087  -1.35714
 Alpha  occ. eigenvalues --   -1.35605  -1.35405  -1.35281  -1.34014  -1.33360
 Alpha  occ. eigenvalues --   -1.33150  -1.32962  -1.32812  -1.32413  -1.32263
 Alpha  occ. eigenvalues --   -1.32125  -1.31667  -1.31454  -1.31055  -1.30352
 Alpha  occ. eigenvalues --   -1.29535  -1.29282  -1.29265  -1.29167  -1.20790
 Alpha  occ. eigenvalues --   -1.20397  -1.20351  -1.20303  -1.20285  -1.20194
 Alpha  occ. eigenvalues --   -1.15584  -1.15532  -1.15505  -1.15401  -1.07103
 Alpha  occ. eigenvalues --   -1.07035  -1.04996  -1.04423  -1.04376  -1.04136
 Alpha  occ. eigenvalues --   -0.91915  -0.91615  -0.91515  -0.90924  -0.88613
 Alpha  occ. eigenvalues --   -0.87845  -0.87152  -0.86815  -0.86489  -0.83790
 Alpha  occ. eigenvalues --   -0.83454  -0.82874  -0.82542  -0.80156  -0.79719
 Alpha  occ. eigenvalues --   -0.79466  -0.79160  -0.78944  -0.76426  -0.76299
 Alpha  occ. eigenvalues --   -0.75953  -0.75533  -0.74428  -0.73961  -0.73811
 Alpha  occ. eigenvalues --   -0.72747  -0.71879  -0.71687  -0.71505  -0.71229
 Alpha  occ. eigenvalues --   -0.71092  -0.70945  -0.70837  -0.70711  -0.70604
 Alpha  occ. eigenvalues --   -0.70418  -0.70324  -0.69942  -0.69751  -0.69654
 Alpha  occ. eigenvalues --   -0.69377  -0.69100  -0.68954  -0.68734  -0.67203
 Alpha  occ. eigenvalues --   -0.67105  -0.66933  -0.66604  -0.66467  -0.66130
 Alpha  occ. eigenvalues --   -0.65378  -0.65031  -0.63770  -0.63563  -0.63407
 Alpha  occ. eigenvalues --   -0.63231  -0.62772  -0.62328  -0.61022  -0.60908
 Alpha  occ. eigenvalues --   -0.60700  -0.60347  -0.60298  -0.60243  -0.59944
 Alpha  occ. eigenvalues --   -0.59759  -0.59456  -0.58861  -0.57357  -0.56980
 Alpha  occ. eigenvalues --   -0.56939  -0.56832  -0.56598  -0.56560  -0.56175
 Alpha  occ. eigenvalues --   -0.56138  -0.55921  -0.55797  -0.55655  -0.55236
 Alpha  occ. eigenvalues --   -0.55141  -0.55015  -0.54896  -0.54844  -0.54720
 Alpha  occ. eigenvalues --   -0.54608  -0.54447  -0.54300  -0.54066  -0.54044
 Alpha  occ. eigenvalues --   -0.53961  -0.53937  -0.53721  -0.53649  -0.53499
 Alpha  occ. eigenvalues --   -0.53351  -0.53013  -0.52861  -0.52766  -0.52671
 Alpha  occ. eigenvalues --   -0.52464  -0.52433  -0.52246  -0.52086  -0.51965
 Alpha  occ. eigenvalues --   -0.51818  -0.51589  -0.51518  -0.51416  -0.51397
 Alpha  occ. eigenvalues --   -0.51311  -0.51144  -0.51008  -0.50894  -0.50845
 Alpha  occ. eigenvalues --   -0.50767  -0.50549  -0.50346  -0.50281  -0.50077
 Alpha  occ. eigenvalues --   -0.50007  -0.49998  -0.49935  -0.49801  -0.49444
 Alpha  occ. eigenvalues --   -0.49247  -0.49185  -0.49161  -0.49100  -0.49042
 Alpha  occ. eigenvalues --   -0.48952  -0.48721  -0.48650  -0.48525  -0.48477
 Alpha  occ. eigenvalues --   -0.48470  -0.48289  -0.48137  -0.48043  -0.47952
 Alpha  occ. eigenvalues --   -0.47871  -0.47299  -0.46875  -0.46637  -0.46138
 Alpha  occ. eigenvalues --   -0.45809  -0.45738  -0.45159  -0.45145  -0.44979
 Alpha  occ. eigenvalues --   -0.44697  -0.44591  -0.44184  -0.44055  -0.43878
 Alpha  occ. eigenvalues --   -0.43539  -0.43113  -0.42321  -0.42221  -0.42087
 Alpha  occ. eigenvalues --   -0.41384  -0.41200  -0.40623  -0.40372  -0.40315
 Alpha  occ. eigenvalues --   -0.38388  -0.38374  -0.38123  -0.38062  -0.36727
 Alpha  occ. eigenvalues --   -0.35730  -0.35368  -0.34711  -0.34622  -0.34464
 Alpha  occ. eigenvalues --   -0.34237  -0.34015
 Alpha virt. eigenvalues --    0.02990   0.03128   0.03213   0.03449   0.10560
 Alpha virt. eigenvalues --    0.10785   0.10935   0.11501   0.11941   0.12103
 Alpha virt. eigenvalues --    0.12204   0.12549   0.13603   0.13956   0.14468

 Mulliken charges:
               1
     1  O   -0.530558
     2  C    0.822982
     3  N   -0.569716
     4  C   -0.055762
     5  C   -0.209566
     6  C   -0.270218
     7  C    0.543737
     8  F   -0.273477
     9  F   -0.288014
    10  C    0.761354
    11  F   -0.268668
    12  F   -0.266694
    13  O   -0.505347
    14  C    0.997142
    15  F   -0.246928
    16  F   -0.246882
    17  F   -0.249815
    18  C    0.820848
    19  O   -0.531020
    20  N   -0.572990
    21  C   -0.053503
    22  C   -0.053095
    23  N   -0.573099
    24  C    0.820928
    25  O   -0.529386
    26  N   -0.561457
    27  C   -0.063647
    28  C   -0.211570
    29  C   -0.269245
    30  C    0.559890
    31  F   -0.287253
    32  F   -0.275963
    33  C    0.730930
    34  F   -0.253083
    35  F   -0.276775
    36  O   -0.483238
    37  C    0.979214
    38  F   -0.240368
    39  F   -0.237854
    40  F   -0.239907
    41  C    0.823561
    42  O   -0.539591
    43  N   -0.572785
    44  C   -0.058026
    45  C   -0.204430
    46  C   -0.265402
    47  C    0.543742
    48  F   -0.279180
    49  F   -0.281752
    50  C    0.775368
    51  F   -0.267872
    52  F   -0.265276
    53  O   -0.517175
    54  C    0.988106
    55  F   -0.248125
    56  F   -0.247220
    57  F   -0.248002
    58  C    0.821644
    59  O   -0.529392
    60  C    0.825584
    61  O   -0.531596
    62  N   -0.572044
    63  C   -0.060287
    64  C   -0.210945
    65  C   -0.260814
    66  C    0.545054
    67  F   -0.282527
    68  F   -0.290042
    69  C    0.742398
    70  F   -0.254171
    71  F   -0.269828
    72  O   -0.493389
    73  C    0.977978
    74  F   -0.242641
    75  F   -0.244550
    76  F   -0.246306
    77  H    0.146970
    78  H    0.153398
    79  H    0.132589
    80  H    0.133465
    81  H    0.146987
    82  H    0.153484
    83  H    0.160742
    84  H    0.161677
    85  H    0.160553
    86  H    0.161070
    87  H    0.146566
    88  H    0.158619
    89  H    0.133848
    90  H    0.131415
    91  H    0.139123
    92  H    0.138035
    93  H    0.155006
    94  H    0.147501
    95  H    0.130923
    96  H    0.135532
    97  H    0.149441
    98  H    0.148530
    99  H    0.152100
   100  H    0.152105
   101  H    0.134177
   102  H    0.134025
   103  H    0.151510
   104  H    0.148618
 Sum of Mulliken charges =   0.00000

 Dipole moment (field-independent basis, Debye):
    X=              1.1349    Y=              3.2698    Z=             -2.6488  Tot=              4.3584
 Quadrupole moment (field-independent basis, Debye-Ang):
   XX=           -477.8679   YY=           -407.0946   ZZ=           -444.5123
   XY=              2.8654   XZ=              0.1283   YZ=              8.2663

 Normal termination of Gaussian 09 at Sun Feb  2 08:23:43 2025.
