 Gaussian 09, Revision D.01,
 Gaussian 09:  ES64L-G09RevD.01 24-Apr-2013

 ----------------------------------------------------------------------
 #p CAM-B3LYP/6-31G(d,p) SCRF=(PCM,Solvent=Generic,Read) NoSymm out=wfn
 ----------------------------------------------------------------------

 --------------
 Title D2D1_pos
 --------------
 Symbolic Z-matrix:
 Charge =  1 Multiplicity = 2

                          Input orientation:
 ---------------------------------------------------------------------
 Center     Atomic      Atomic             Coordinates (Angstroms)
 Number     Number       Type             X           Y           Z
 ---------------------------------------------------------------------
      1          8           0       -5.729058    0.829637   -0.316425
      2          6           0       -4.521887    0.623916   -0.457766
      3          7           0       -3.934795    0.571722   -1.704194
      4          6           0       -4.771368    0.842009   -2.872637
      5          6           0       -4.811396    2.341896   -3.193207
      6          6           0       -5.650281    2.703209   -4.420796
      7          6           0       -7.137857    2.345766   -4.396197
      8          9           0       -7.257874    0.989458   -4.329422
      9          9           0       -7.647562    2.690278   -5.618646
     10          6           0       -7.975964    3.015356   -3.287187
     11          9           0       -9.285806    2.699618   -3.439235
     12          9           0       -7.868893    4.365587   -3.391534
     13          8           0       -7.548528    2.658940   -1.997983
     14          6           0       -8.556440    2.938003   -1.069626
     15          9           0       -8.011093    2.951072    0.165424
     16          9           0       -9.502243    1.980472   -1.104075
     17          9           0       -9.117077    4.143329   -1.284960
     18          6           0       -2.580790    0.408914   -1.896220
     19          8           0       -2.061291    0.543211   -3.005668
     20          7           0       -1.833034    0.113648   -0.778259
     21          6           0       -0.395705   -0.112020   -0.948745
     22          6           0        0.397174    1.204593   -0.976421
     23          7           0        1.842823    0.979782   -1.049256
     24          6           0        2.412191    0.794098   -2.289135
     25          8           0        1.727162    0.737888   -3.311207
     26          7           0        3.784308    0.660875   -2.322322
     27          6           0        4.436359    0.593740   -3.632010
     28          6           0        4.433910   -0.816674   -4.242581
     29          6           0        5.338004   -1.848640   -3.546546
     30          6           0        6.820906   -1.700285   -3.900765
     31          9           0        6.972126   -1.970262   -5.230008
     32          9           0        7.158057   -0.384219   -3.761873
     33          6           0        7.821329   -2.560440   -3.074113
     34          9           0        7.570887   -2.474520   -1.741897
     35          9           0        9.063333   -2.005100   -3.234730
     36          8           0        8.032459   -3.914146   -3.395069
     37          6           0        6.877172   -4.677784   -3.299926
     38          9           0        6.083325   -4.278693   -2.290783
     39          9           0        7.215635   -5.964073   -3.098278
     40          9           0        6.195129   -4.593721   -4.455058
     41          6           0        4.559430    0.552609   -1.187480
     42          8           0        5.781215    0.397232   -1.246012
     43          7           0        3.893499    0.605847    0.018266
     44          6           0        4.677467    0.474533    1.247279
     45          6           0        5.206992    1.832514    1.722237
     46          6           0        6.242489    1.744118    2.850939
     47          6           0        5.709088    1.122371    4.139046
     48          9           0        5.383208   -0.179708    3.901110
     49          9           0        4.551598    1.750624    4.483596
     50          6           0        6.727281    1.202174    5.292547
     51          9           0        7.875712    0.572776    4.937319
     52          9           0        7.044377    2.499723    5.538150
     53          8           0        6.221249    0.644332    6.481753
     54          6           0        7.274160    0.401417    7.367778
     55          9           0        7.933586   -0.716955    7.006988
     56          9           0        8.133270    1.435904    7.434213
     57          9           0        6.756715    0.203486    8.599415
     58          6           0        2.546341    0.874385    0.130067
     59          8           0        1.996414    1.013239    1.223311
     60          6           0       -2.342489    0.147920    0.501528
     61          8           0       -1.635066   -0.063203    1.487734
     62          7           0       -3.682885    0.447193    0.621152
     63          6           0       -4.258100    0.508888    1.962955
     64          6           0       -4.748659   -0.866294    2.429048
     65          6           0       -5.294713   -0.802060    3.854709
     66          6           0       -5.981873   -2.084379    4.323421
     67          9           0       -7.067384   -2.296831    3.530121
     68          9           0       -6.477013   -1.847449    5.573987
     69          6           0       -5.071157   -3.337568    4.359953
     70          9           0       -4.652306   -3.686597    3.115481
     71          9           0       -3.929525   -3.013975    5.037912
     72          8           0       -5.548351   -4.500022    4.991892
     73          6           0       -6.780200   -4.889949    4.461930
     74          9           0       -7.766133   -4.163262    5.014888
     75          9           0       -6.813183   -4.766938    3.123349
     76          9           0       -6.987579   -6.186053    4.773335
     77          1           0       -4.381098    0.288495   -3.734868
     78          1           0       -5.777731    0.463476   -2.673386
     79          1           0       -3.786640    2.689321   -3.377860
     80          1           0       -5.149757    2.910041   -2.320856
     81          1           0       -5.551742    3.779297   -4.609788
     82          1           0       -5.202575    2.210580   -5.293223
     83          1           0       -0.229670   -0.670777   -1.877873
     84          1           0       -0.025039   -0.751180   -0.138854
     85          1           0        0.163693    1.798369   -0.083872
     86          1           0        0.087361    1.809408   -1.837184
     87          1           0        3.894196    1.260694   -4.314750
     88          1           0        5.448838    0.999876   -3.561766
     89          1           0        3.407615   -1.205336   -4.230761
     90          1           0        4.723523   -0.740878   -5.298235
     91          1           0        4.981898   -2.827595   -3.876444
     92          1           0        5.194805   -1.809219   -2.463820
     93          1           0        4.046071    0.022146    2.019018
     94          1           0        5.513050   -0.213295    1.070683
     95          1           0        5.674659    2.354537    0.877745
     96          1           0        4.367512    2.464820    2.038489
     97          1           0        7.107512    1.171148    2.496286
     98          1           0        6.588573    2.763481    3.059993
     99          1           0       -5.089619    1.223517    1.970670
    100          1           0       -3.505903    0.893599    2.662343
    101          1           0       -5.524139   -1.234632    1.746320
    102          1           0       -3.918572   -1.579508    2.379878
    103          1           0       -6.028513    0.012226    3.915309
    104          1           0       -4.489130   -0.539095    4.552225
 ---------------------------------------------------------------------

 SCF Done:  E(UCAM-B3LYP) =  -5110.89683739     A.U. after   37 cycles

 Alpha  occ. eigenvalues --   -1.39945  -1.39929  -1.39762  -1.39499  -1.37296
 Alpha  occ. eigenvalues --   -1.36975  -1.36889  -1.36888  -1.35356  -1.34566
 Alpha  occ. eigenvalues --   -1.34253  -1.34056  -1.33955  -1.33466  -1.33435
 Alpha  occ. eigenvalues --   -1.33262  -1.32786  -1.32745  -1.32451  -1.31710
 Alpha  occ. eigenvalues --   -1.31129  -1.30817  -1.30761  -1.30627  -1.26879
 Alpha  occ. eigenvalues --   -1.26677  -1.22080  -1.21953  -1.21871  -1.21808
 Alpha  occ. eigenvalues --   -1.21599  -1.21427  -1.20700  -1.20527  -1.14347
 Alpha  occ. eigenvalues --   -1.13949  -1.11006  -1.10483  -1.09327  -1.09313
 Alpha  occ. eigenvalues --   -0.96212  -0.94001  -0.93603  -0.93469  -0.93128
 Alpha  occ. eigenvalues --   -0.90282  -0.89793  -0.89393  -0.89101  -0.86651
 Alpha  occ. eigenvalues --   -0.86227  -0.86107  -0.85766  -0.85417  -0.83237
 Alpha  occ. eigenvalues --   -0.82782  -0.81761  -0.81441  -0.80150  -0.79529
 Alpha  occ. eigenvalues --   -0.79309  -0.78338  -0.77479  -0.77205  -0.76833
 Alpha  occ. eigenvalues --   -0.76382  -0.76066  -0.75704  -0.74087  -0.73374
 Alpha  occ. eigenvalues --   -0.73285  -0.72757  -0.72414  -0.72197  -0.71941
 Alpha  occ. eigenvalues --   -0.71841  -0.71804  -0.71415  -0.71112  -0.71063
 Alpha  occ. eigenvalues --   -0.71023  -0.70643  -0.70585  -0.70571  -0.69485
 Alpha  occ. eigenvalues --   -0.68483  -0.68461  -0.68445  -0.68347  -0.67997
 Alpha  occ. eigenvalues --   -0.67731  -0.67530  -0.66758  -0.66531  -0.66169
 Alpha  occ. eigenvalues --   -0.65414  -0.65020  -0.64896  -0.64811  -0.64467
 Alpha  occ. eigenvalues --   -0.63206  -0.62649  -0.62338  -0.62017  -0.61707
 Alpha  occ. eigenvalues --   -0.61638  -0.61603  -0.61589  -0.61385  -0.61012
 Alpha  occ. eigenvalues --   -0.60626  -0.60183  -0.59882  -0.59659  -0.59354
 Alpha  occ. eigenvalues --   -0.58993  -0.58458  -0.58430  -0.58291  -0.58212
 Alpha  occ. eigenvalues --   -0.57981  -0.57815  -0.57759  -0.57708  -0.57648
 Alpha  occ. eigenvalues --   -0.57285  -0.57134  -0.56999  -0.56898  -0.56818
 Alpha  occ. eigenvalues --   -0.56512  -0.56358  -0.56259  -0.56078  -0.55887
 Alpha  occ. eigenvalues --   -0.55598  -0.55404  -0.55263  -0.55223  -0.55166
 Alpha  occ. eigenvalues --   -0.54877  -0.54725  -0.54496  -0.54415  -0.54184
 Alpha  occ. eigenvalues --   -0.53961  -0.53824  -0.53674  -0.53616  -0.53390
 Alpha  occ. eigenvalues --   -0.53315  -0.53133  -0.52748  -0.52731  -0.52677
 Alpha  occ. eigenvalues --   -0.52628  -0.52360  -0.52324  -0.52305  -0.52111
 Alpha  occ. eigenvalues --   -0.52053  -0.51754  -0.51615  -0.51562  -0.51462
 Alpha  occ. eigenvalues --   -0.51263  -0.51172  -0.51155  -0.50784  -0.50632
 Alpha  occ. eigenvalues --   -0.50560  -0.50553  -0.50548  -0.50426  -0.50349
 Alpha  occ. eigenvalues --   -0.50277  -0.50187  -0.50155  -0.50012  -0.49939
 Alpha  occ. eigenvalues --   -0.49935  -0.49740  -0.49571  -0.49152  -0.48854
 Alpha  occ. eigenvalues --   -0.48506  -0.48070  -0.47872  -0.47599  -0.47152
 Alpha  occ. eigenvalues --   -0.46907  -0.46618  -0.46349  -0.46317  -0.46215
 Alpha  occ. eigenvalues --   -0.45907  -0.45795  -0.45489  -0.44994  -0.44682
 Alpha  occ. eigenvalues --   -0.44597  -0.44497  -0.44187  -0.43709  -0.43480
 Alpha  occ. eigenvalues --   -0.43400  -0.43376  -0.43025  -0.42561  -0.42310
 Alpha  occ. eigenvalues --   -0.42215  -0.39832  -0.39733  -0.39588  -0.39493
 Alpha  occ. eigenvalues --   -0.39330  -0.39242
 Alpha virt. eigenvalues --   -0.02768  -0.02659  -0.02472  -0.02000   0.08022
 Alpha virt. eigenvalues --    0.08170   0.08346   0.09132   0.09347   0.09643
 Alpha virt. eigenvalues --    0.09786   0.10277   0.10494   0.10696   0.10776

  Beta  occ. eigenvalues --  -24.85750 -24.85047 -24.84688 -24.84404 -24.84329
  Beta  occ. eigenvalues --  -24.84172 -24.84086 -24.83926 -24.83823 -24.83790
  Beta  occ. eigenvalues --  -24.83748 -24.83720 -24.83625 -24.83494 -24.83450
  Beta  occ. eigenvalues --  -24.83369 -24.83228 -24.83213 -24.83209 -24.82354
  Beta  occ. eigenvalues --  -24.82333 -24.82225 -24.82056 -24.81996 -24.81850
  Beta  occ. eigenvalues --  -24.81781 -24.81553 -24.81460 -19.33846 -19.33578
  Beta  occ. eigenvalues --  -19.33394 -19.33213 -19.29086 -19.28986 -19.28840
  Beta  occ. eigenvalues --  -19.28788 -19.26596 -19.26474 -14.59393 -14.59323
  Beta  occ. eigenvalues --  -14.53998 -14.53843 -14.53841 -14.53805 -10.60938
  Beta  occ. eigenvalues --  -10.60230 -10.60063 -10.59904 -10.53895 -10.53868
  Beta  occ. eigenvalues --  -10.53854 -10.53738 -10.49827 -10.49734 -10.49684
  Beta  occ. eigenvalues --  -10.49670 -10.47931 -10.47843 -10.47775 -10.47727
  Beta  occ. eigenvalues --  -10.47718 -10.47644 -10.40349 -10.40332 -10.34526
  Beta  occ. eigenvalues --  -10.34213 -10.34179 -10.34179 -10.30720 -10.30673
  Beta  occ. eigenvalues --  -10.30643 -10.30347 -10.30291 -10.30212 -10.30190
  Beta  occ. eigenvalues --  -10.29969  -1.44792  -1.43709  -1.43677  -1.43485
  Beta  occ. eigenvalues --   -1.39945  -1.39929  -1.39762  -1.39499  -1.37296
  Beta  occ. eigenvalues --   -1.36975  -1.36889  -1.36888  -1.35356  -1.34566
  Beta  occ. eigenvalues --   -1.34253  -1.34056  -1.33955  -1.33466  -1.33435
  Beta  occ. eigenvalues --   -1.33262  -1.32786  -1.32745  -1.32451  -1.31710
  Beta  occ. eigenvalues --   -1.31129  -1.30817  -1.30761  -1.30626  -1.26388
  Beta  occ. eigenvalues --   -1.26208  -1.22080  -1.21808  -1.21599  -1.21594
  Beta  occ. eigenvalues --   -1.21514  -1.21427  -1.20483  -1.20313  -1.13416
  Beta  occ. eigenvalues --   -1.13063  -1.10709  -1.10061  -1.09207  -1.09194
  Beta  occ. eigenvalues --   -0.95655  -0.93966  -0.93589  -0.93374  -0.93078
  Beta  occ. eigenvalues --   -0.90252  -0.89741  -0.89356  -0.89064  -0.86502
  Beta  occ. eigenvalues --   -0.86122  -0.86013  -0.85736  -0.85329  -0.83163
  Beta  occ. eigenvalues --   -0.82696  -0.81704  -0.81406  -0.79994  -0.79460
  Beta  occ. eigenvalues --   -0.79226  -0.78165  -0.77411  -0.77125  -0.76798
  Beta  occ. eigenvalues --   -0.76290  -0.76021  -0.75695  -0.74037  -0.73326
  Beta  occ. eigenvalues --   -0.73255  -0.72742  -0.72413  -0.72197  -0.71941
  Beta  occ. eigenvalues --   -0.71816  -0.71799  -0.71394  -0.71111  -0.71057
  Beta  occ. eigenvalues --   -0.71001  -0.70609  -0.70573  -0.70565  -0.68803
  Beta  occ. eigenvalues --   -0.68477  -0.68442  -0.68428  -0.67999  -0.67806
  Beta  occ. eigenvalues --   -0.67665  -0.67274  -0.66738  -0.66383  -0.65713
  Beta  occ. eigenvalues --   -0.65312  -0.64905  -0.64794  -0.64548  -0.64374
  Beta  occ. eigenvalues --   -0.63081  -0.62532  -0.62318  -0.61919  -0.61694
  Beta  occ. eigenvalues --   -0.61608  -0.61564  -0.61427  -0.61311  -0.60914
  Beta  occ. eigenvalues --   -0.60441  -0.59810  -0.59638  -0.59404  -0.59236
  Beta  occ. eigenvalues --   -0.58702  -0.58327  -0.58233  -0.58202  -0.58078
  Beta  occ. eigenvalues --   -0.57872  -0.57736  -0.57689  -0.57549  -0.57421
  Beta  occ. eigenvalues --   -0.57120  -0.57015  -0.56817  -0.56750  -0.56533
  Beta  occ. eigenvalues --   -0.56388  -0.56325  -0.56142  -0.55996  -0.55834
  Beta  occ. eigenvalues --   -0.55526  -0.55351  -0.55202  -0.55159  -0.55022
  Beta  occ. eigenvalues --   -0.54832  -0.54661  -0.54436  -0.54331  -0.54143
  Beta  occ. eigenvalues --   -0.53870  -0.53673  -0.53617  -0.53473  -0.53327
  Beta  occ. eigenvalues --   -0.53126  -0.52743  -0.52712  -0.52655  -0.52601
  Beta  occ. eigenvalues --   -0.52372  -0.52341  -0.52311  -0.52132  -0.52073
  Beta  occ. eigenvalues --   -0.52021  -0.51608  -0.51566  -0.51541  -0.51462
  Beta  occ. eigenvalues --   -0.51168  -0.51155  -0.51097  -0.50728  -0.50596
  Beta  occ. eigenvalues --   -0.50553  -0.50545  -0.50537  -0.50392  -0.50324
  Beta  occ. eigenvalues --   -0.50214  -0.50165  -0.50140  -0.49984  -0.49924
  Beta  occ. eigenvalues --   -0.49918  -0.49721  -0.49556  -0.49140  -0.48734
  Beta  occ. eigenvalues --   -0.48420  -0.48031  -0.47721  -0.47395  -0.46982
  Beta  occ. eigenvalues --   -0.46873  -0.46506  -0.46302  -0.46186  -0.46115
  Beta  occ. eigenvalues --   -0.45887  -0.45707  -0.44839  -0.44540  -0.44519
  Beta  occ. eigenvalues --   -0.44150  -0.44113  -0.43517  -0.43255  -0.43182
  Beta  occ. eigenvalues --   -0.42934  -0.42539  -0.42295  -0.42225  -0.40511
  Beta  occ. eigenvalues --   -0.39596  -0.39233  -0.39148  -0.38819  -0.38728
  Beta  occ. eigenvalues --   -0.38248
  Beta virt. eigenvalues --   -0.28342  -0.02365  -0.02238  -0.01914  -0.01215
  Beta virt. eigenvalues --    0.08261   0.08328   0.08739   0.09214   0.09440
  Beta virt. eigenvalues --    0.09680   0.09902   0.10374   0.10509   0.10717

 Mulliken charges and spin densities:
               1          2
     1  O   -0.491173   0.029366
     2  C    0.845262  -0.013243
     3  N   -0.566093   0.017108
     4  C   -0.068837   0.001348
     5  C   -0.213761   0.003136
     6  C   -0.270437   0.000473
     7  C    0.544814  -0.000030
     8  F   -0.273057   0.000009
     9  F   -0.284425   0.000036
    10  C    0.763927   0.000001
    11  F   -0.265891   0.000000
    12  F   -0.264928   0.000000
    13  O   -0.511250  -0.000001
    14  C    0.998281  -0.000008
    15  F   -0.247856   0.000012
    16  F   -0.245152   0.000001
    17  F   -0.247624   0.000001
    18  C    0.849626  -0.051061
    19  O   -0.469669   0.092835
    20  N   -0.507734   0.293874
    21  C   -0.076611   0.051783
    22  C   -0.077046   0.051298
    23  N   -0.507407   0.297163
    24  C    0.849507  -0.051417
    25  O   -0.467817   0.090526
    26  N   -0.557308   0.019828
    27  C   -0.077345   0.001981
    28  C   -0.215314   0.003041
    29  C   -0.271914   0.000530
    30  C    0.561939  -0.000019
    31  F   -0.283663   0.000008
    32  F   -0.276088   0.000001
    33  C    0.733008   0.000009
    34  F   -0.253789   0.000001
    35  F   -0.274134   0.000006
    36  O   -0.480046   0.000002
    37  C    0.979894   0.000001
    38  F   -0.242215   0.000009
    39  F   -0.235882   0.000001
    40  F   -0.239658   0.000017
    41  C    0.844805  -0.013815
    42  O   -0.498652   0.031182
    43  N   -0.571063   0.008466
    44  C   -0.070953   0.000676
    45  C   -0.208689   0.002113
    46  C   -0.265115   0.000428
    47  C    0.542551   0.000037
    48  F   -0.279307   0.000069
    49  F   -0.281617   0.000007
    50  C    0.777354  -0.000012
    51  F   -0.266529   0.000002
    52  F   -0.263852   0.000007
    53  O   -0.517719   0.000000
    54  C    0.989327  -0.000001
    55  F   -0.247622   0.000000
    56  F   -0.246248   0.000000
    57  F   -0.247076   0.000000
    58  C    0.849170  -0.052793
    59  O   -0.467173   0.094709
    60  C    0.852507  -0.051776
    61  O   -0.470309   0.091189
    62  N   -0.570345   0.009441
    63  C   -0.073074   0.000341
    64  C   -0.213997   0.002271
    65  C   -0.262298   0.000221
    66  C    0.547663   0.000138
    67  F   -0.280906   0.000013
    68  F   -0.286842   0.000074
    69  C    0.742541  -0.000009
    70  F   -0.255659   0.000005
    71  F   -0.269772  -0.000001
    72  O   -0.491552   0.000002
    73  C    0.979060   0.000000
    74  F   -0.241608   0.000000
    75  F   -0.245313   0.000000
    76  F   -0.244869   0.000000
    77  H    0.162192   0.000589
    78  H    0.170652  -0.000204
    79  H    0.135097  -0.000147
    80  H    0.140937   0.000216
    81  H    0.154924   0.000238
    82  H    0.158196   0.000050
    83  H    0.219386   0.010509
    84  H    0.218922   0.006941
    85  H    0.219110   0.007419
    86  H    0.219574   0.010281
    87  H    0.162829   0.000974
    88  H    0.177000  -0.000297
    89  H    0.135849  -0.000149
    90  H    0.148009   0.000419
    91  H    0.147050   0.000441
    92  H    0.134070   0.000035
    93  H    0.166244   0.000210
    94  H    0.166125   0.000098
    95  H    0.138861   0.000141
    96  H    0.139538  -0.000098
    97  H    0.155651  -0.000013
    98  H    0.156410   0.000173
    99  H    0.170273   0.000126
   100  H    0.164903   0.000243
   101  H    0.142690   0.000219
   102  H    0.136043  -0.000066
   103  H    0.157977  -0.000015
   104  H    0.152536   0.000055
 Sum of Mulliken charges =   1.00000   1.00000

 Dipole moment (field-independent basis, Debye):
    X=              1.2928    Y=              5.8765    Z=             -6.9593  Tot=              9.1998
 Quadrupole moment (field-independent basis, Debye-Ang):
   XX=           -417.9642   YY=           -397.2085   ZZ=           -417.6944
   XY=              2.5185   XZ=             -2.4851   YZ=              4.8662

 Normal termination of Gaussian 09 at Sun Feb  2 08:34:12 2025.
