 Gaussian 09, Revision D.01,
 Gaussian 09:  ES64L-G09RevD.01 24-Apr-2013

 ----------------------------------------------------------------------
 #p CAM-B3LYP/6-31G(d,p) SCRF=(PCM,Solvent=Generic,Read) NoSymm out=wfn
 ----------------------------------------------------------------------

 --------------------
 Title A1374950780_p1
 --------------------
 Symbolic Z-matrix:
 Charge =  1 Multiplicity = 2

                          Input orientation:
 ---------------------------------------------------------------------
 Center     Atomic      Atomic             Coordinates (Angstroms)
 Number     Number       Type             X           Y           Z
 ---------------------------------------------------------------------
      1          8           0        1.947809    2.631743    1.542021
      2          6           0        0.993941    2.018490    1.071240
      3          7           0       -0.079170    2.675190    0.512900
      4          9           0       -0.174387    4.040682    0.693105
      5          6           0       -1.274162    1.954312    0.234457
      6          7           0       -0.959179    0.691739   -0.358203
      7          6           0       -1.983311    0.011261   -1.142028
      8          9           0       -1.388586   -0.539977   -2.231256
      9          9           0       -2.795912    0.972886   -1.658883
     10          6           0       -2.839117   -1.044824   -0.383704
     11          9           0       -2.048965   -2.118832   -0.061489
     12          8           0       -3.281145   -0.590178    0.907236
     13          6           0       -4.457358    0.175740    0.897743
     14          9           0       -5.507925   -0.572909    0.546337
     15          9           0       -4.651885    0.659688    2.137046
     16          9           0       -4.312965    1.212393    0.061395
     17          6           0       -3.896299   -1.548786   -1.373541
     18          9           0       -4.727081   -0.562612   -1.779943
     19          9           0       -3.353913   -2.092925   -2.483743
     20          9           0       -4.670234   -2.505406   -0.804983
     21          6           0        0.106541   -0.026334    0.129558
     22          8           0        0.320811   -1.172980   -0.246185
     23          7           0        0.921570    0.636944    1.027914
     24          6           0        2.057786   -0.092197    1.571865
     25          9           0        1.651040   -1.360468    1.873872
     26          9           0        2.358422    0.434709    2.794393
     27          6           0        3.325266   -0.140907    0.677444
     28          9           0        3.841219    1.116647    0.555029
     29          8           0        2.966132   -0.530070   -0.652467
     30          6           0        4.071018   -0.834106   -1.460821
     31          9           0        3.671105   -0.843922   -2.745893
     32          9           0        5.042392    0.080566   -1.318734
     33          9           0        4.533006   -2.054006   -1.143133
     34          6           0        4.317120   -1.037557    1.432298
     35          9           0        4.528392   -0.635849    2.704685
     36          9           0        3.901568   -2.323401    1.479196
     37          9           0        5.533636   -1.046853    0.834517
     38          1           0       -1.815406    1.792568    1.172128
     39          1           0       -1.871771    2.569542   -0.442880
 ---------------------------------------------------------------------

 SCF Done:  E(UCAM-B3LYP) =  -2781.30985670     A.U. after   29 cycles

 Alpha  occ. eigenvalues --  -25.00087 -24.88381 -24.87987 -24.87284 -24.86998
 Alpha  occ. eigenvalues --  -24.86996 -24.86876 -24.86804 -24.86404 -24.86189
 Alpha  occ. eigenvalues --  -24.85930 -24.85831 -24.85766 -24.85626 -24.85558
 Alpha  occ. eigenvalues --  -24.85377 -24.85189 -24.85096 -24.84893 -19.37700
 Alpha  occ. eigenvalues --  -19.37231 -19.35987 -19.29670 -14.76618 -14.60322
 Alpha  occ. eigenvalues --  -14.58225 -10.63300 -10.61864 -10.58156 -10.58121
 Alpha  occ. eigenvalues --  -10.57878 -10.57806 -10.56782 -10.52744 -10.52516
 Alpha  occ. eigenvalues --  -10.52080 -10.48944  -1.50737  -1.47122  -1.45431
 Alpha  occ. eigenvalues --   -1.44716  -1.44221  -1.43589  -1.42972  -1.39150
 Alpha  occ. eigenvalues --   -1.38708  -1.37832  -1.36873  -1.36434  -1.36144
 Alpha  occ. eigenvalues --   -1.35617  -1.35324  -1.35125  -1.34635  -1.34605
 Alpha  occ. eigenvalues --   -1.34267  -1.31440  -1.26181  -1.24488  -1.23549
 Alpha  occ. eigenvalues --   -1.21401  -1.16213  -1.13762  -0.98428  -0.97342
 Alpha  occ. eigenvalues --   -0.95627  -0.90946  -0.88662  -0.86020  -0.85454
 Alpha  occ. eigenvalues --   -0.84363  -0.82440  -0.81607  -0.79332  -0.78858
 Alpha  occ. eigenvalues --   -0.78478  -0.77260  -0.76048  -0.75257  -0.75052
 Alpha  occ. eigenvalues --   -0.74652  -0.73493  -0.73374  -0.73333  -0.72491
 Alpha  occ. eigenvalues --   -0.71657  -0.71334  -0.70894  -0.70838  -0.70222
 Alpha  occ. eigenvalues --   -0.69853  -0.69365  -0.68993  -0.68447  -0.67463
 Alpha  occ. eigenvalues --   -0.67278  -0.65883  -0.64508  -0.63653  -0.63096
 Alpha  occ. eigenvalues --   -0.62770  -0.61426  -0.60990  -0.60384  -0.60255
 Alpha  occ. eigenvalues --   -0.59884  -0.59654  -0.59616  -0.59458  -0.59043
 Alpha  occ. eigenvalues --   -0.58866  -0.58714  -0.58201  -0.58081  -0.57651
 Alpha  occ. eigenvalues --   -0.57415  -0.57098  -0.56947  -0.56775  -0.56226
 Alpha  occ. eigenvalues --   -0.55806  -0.55272  -0.54938  -0.54521  -0.54394
 Alpha  occ. eigenvalues --   -0.54291  -0.54091  -0.54002  -0.53378  -0.53228
 Alpha  occ. eigenvalues --   -0.53098  -0.52886  -0.52624  -0.52176  -0.52084
 Alpha  occ. eigenvalues --   -0.51809  -0.51664  -0.51459  -0.51144  -0.50050
 Alpha  occ. eigenvalues --   -0.49550  -0.47921  -0.47360  -0.46442  -0.43976
 Alpha  occ. eigenvalues --   -0.42894
 Alpha virt. eigenvalues --   -0.11430  -0.07928  -0.01801   0.01266   0.01919
 Alpha virt. eigenvalues --    0.04822   0.05896   0.07438   0.08674   0.09139
 Alpha virt. eigenvalues --    0.10057   0.11832   0.13892   0.14332   0.14474

  Beta  occ. eigenvalues --  -24.99722 -24.88379 -24.87986 -24.87284 -24.86998
  Beta  occ. eigenvalues --  -24.86998 -24.86875 -24.86795 -24.86395 -24.86189
  Beta  occ. eigenvalues --  -24.85930 -24.85831 -24.85766 -24.85625 -24.85558
  Beta  occ. eigenvalues --  -24.85377 -24.85189 -24.85096 -24.84893 -19.37228
  Beta  occ. eigenvalues --  -19.36880 -19.35987 -19.29668 -14.75084 -14.60378
  Beta  occ. eigenvalues --  -14.58149 -10.63300 -10.61864 -10.58156 -10.58119
  Beta  occ. eigenvalues --  -10.57879 -10.57808 -10.57045 -10.52744 -10.52517
  Beta  occ. eigenvalues --  -10.52085 -10.48958  -1.49577  -1.47121  -1.45430
  Beta  occ. eigenvalues --   -1.44712  -1.44221  -1.43583  -1.42973  -1.39134
  Beta  occ. eigenvalues --   -1.38707  -1.37831  -1.36870  -1.36424  -1.36142
  Beta  occ. eigenvalues --   -1.35616  -1.35323  -1.35124  -1.34636  -1.34603
  Beta  occ. eigenvalues --   -1.34267  -1.30509  -1.25570  -1.24480  -1.23528
  Beta  occ. eigenvalues --   -1.20033  -1.16030  -1.12609  -0.98075  -0.97263
  Beta  occ. eigenvalues --   -0.95382  -0.90865  -0.88210  -0.86018  -0.85342
  Beta  occ. eigenvalues --   -0.84327  -0.82092  -0.81408  -0.79225  -0.78513
  Beta  occ. eigenvalues --   -0.77236  -0.76013  -0.75887  -0.75178  -0.74671
  Beta  occ. eigenvalues --   -0.73841  -0.73423  -0.73325  -0.73182  -0.72419
  Beta  occ. eigenvalues --   -0.71480  -0.71260  -0.70858  -0.70581  -0.70098
  Beta  occ. eigenvalues --   -0.69751  -0.69306  -0.68500  -0.68224  -0.67337
  Beta  occ. eigenvalues --   -0.65930  -0.65409  -0.63226  -0.63072  -0.62955
  Beta  occ. eigenvalues --   -0.62662  -0.61208  -0.60512  -0.60335  -0.59911
  Beta  occ. eigenvalues --   -0.59862  -0.59636  -0.59449  -0.59159  -0.59030
  Beta  occ. eigenvalues --   -0.58831  -0.58524  -0.58171  -0.57871  -0.57628
  Beta  occ. eigenvalues --   -0.57402  -0.57045  -0.56920  -0.56692  -0.56169
  Beta  occ. eigenvalues --   -0.55665  -0.55185  -0.54918  -0.54379  -0.54310
  Beta  occ. eigenvalues --   -0.54209  -0.54075  -0.53936  -0.53364  -0.53109
  Beta  occ. eigenvalues --   -0.52942  -0.52812  -0.52221  -0.52162  -0.51806
  Beta  occ. eigenvalues --   -0.51728  -0.51500  -0.51144  -0.49542  -0.49051
  Beta  occ. eigenvalues --   -0.47734  -0.47295  -0.45223  -0.43750  -0.42787
  Beta virt. eigenvalues --   -0.28647  -0.09635  -0.06277  -0.01461   0.01303
  Beta virt. eigenvalues --    0.01934   0.05018   0.05936   0.07883   0.09114
  Beta virt. eigenvalues --    0.09289   0.10373   0.12172   0.13915   0.14351

 Mulliken charges and spin densities:
               1          2
     1  O   -0.319936   0.323279
     2  C    0.856104  -0.150455
     3  N    0.060813   0.630497
     4  F   -0.059772   0.083595
     5  C    0.050315  -0.026635
     6  N   -0.615432   0.034747
     7  C    0.772276  -0.000887
     8  F   -0.234836   0.002091
     9  F   -0.255323   0.000526
    10  C    0.439346  -0.000331
    11  F   -0.248762   0.000048
    12  O   -0.511270   0.000854
    13  C    0.995724  -0.000346
    14  F   -0.225656   0.000045
    15  F   -0.235101   0.000098
    16  F   -0.247486   0.000184
    17  C    0.818035   0.000030
    18  F   -0.249280   0.000014
    19  F   -0.236717   0.000007
    20  F   -0.251245  -0.000034
    21  C    0.894276  -0.001996
    22  O   -0.442380   0.001509
    23  N   -0.662472  -0.015882
    24  C    0.763104   0.000256
    25  F   -0.239182  -0.000443
    26  F   -0.246753   0.000116
    27  C    0.440363   0.000030
    28  F   -0.253636   0.001681
    29  O   -0.507321   0.000103
    30  C    1.001395  -0.000013
    31  F   -0.235328   0.000001
    32  F   -0.239901   0.000032
    33  F   -0.238246   0.000005
    34  C    0.820706  -0.000270
    35  F   -0.240276   0.000049
    36  F   -0.240788   0.000011
    37  F   -0.252718   0.000043
    38  H    0.293629   0.091175
    39  H    0.283732   0.026266
 Sum of Mulliken charges =   1.00000   1.00000

 Dipole moment (field-independent basis, Debye):
    X=             -4.2420    Y=             11.3591    Z=              2.5053  Tot=             12.3815
 Quadrupole moment (field-independent basis, Debye-Ang):
   XX=           -176.2977   YY=           -166.4007   ZZ=           -187.8863
   XY=             -9.0340   XZ=             -3.6309   YZ=              3.5950

 Normal termination of Gaussian 09 at Sun Mar  3 17:46:01 2024.
