 Gaussian 09, Revision D.01,
 Gaussian 09:  ES64L-G09RevD.01 24-Apr-2013

 ----------------------------------------------------------------------
 #p CAM-B3LYP/6-31G(d,p) SCRF=(PCM,Solvent=Generic,Read) NoSymm out=wfn
 ----------------------------------------------------------------------

 -------------------
 Title A1374950780_0
 -------------------
 Symbolic Z-matrix:
 Charge =  0 Multiplicity = 1

                          Input orientation:
 ---------------------------------------------------------------------
 Center     Atomic      Atomic             Coordinates (Angstroms)
 Number     Number       Type             X           Y           Z
 ---------------------------------------------------------------------
      1          8           0       -2.701409   -2.405433    0.707830
      2          6           0       -1.544577   -2.170676    0.367813
      3          7           0       -0.482986   -2.843880    0.927368
      4          9           0       -0.759020   -3.929276    1.735989
      5          6           0        0.796556   -2.794954    0.305734
      6          7           0        1.076972   -1.477504   -0.164672
      7          6           0        2.470698   -1.096465   -0.350904
      8          9           0        2.664720   -0.764578   -1.651173
      9          9           0        3.220101   -2.223654   -0.170519
     10          6           0        2.981236    0.007228    0.609843
     11          9           0        2.938066   -0.517640    1.877772
     12          8           0        2.084067    1.117200    0.625324
     13          6           0        2.585854    2.230810    1.311404
     14          9           0        1.569543    3.070890    1.577165
     15          9           0        3.157866    1.863333    2.469219
     16          9           0        3.480623    2.863826    0.535752
     17          6           0        4.434308    0.272680    0.194343
     18          9           0        4.513697    0.856473   -1.021561
     19          9           0        5.176391   -0.856699    0.149279
     20          9           0        5.060643    1.097424    1.067318
     21          6           0        0.076981   -0.716604   -0.709015
     22          8           0        0.317734    0.345086   -1.273161
     23          7           0       -1.206362   -1.200371   -0.562834
     24          6           0       -2.300873   -0.432150   -1.134624
     25          9           0       -1.905235    0.112244   -2.317927
     26          9           0       -3.265513   -1.328235   -1.526103
     27          6           0       -2.983659    0.640678   -0.233992
     28          9           0       -3.043603    0.152702    1.054474
     29          8           0       -4.372616    0.861335   -0.536478
     30          6           0       -4.610258    1.576878   -1.719861
     31          9           0       -4.215567    2.849999   -1.572065
     32          9           0       -5.931095    1.561954   -1.974226
     33          9           0       -3.966770    1.017891   -2.751515
     34          6           0       -2.119967    1.899109   -0.162358
     35          9           0       -1.824412    2.409050   -1.373341
     36          9           0       -2.754885    2.874210    0.536773
     37          9           0       -0.959119    1.665929    0.492643
     38          1           0        1.529407   -3.097586    1.059572
     39          1           0        0.812463   -3.491223   -0.539098
 ---------------------------------------------------------------------

 SCF Done:  E(RCAM-B3LYP) =  -2781.62557417     A.U. after   13 cycles

 Alpha  occ. eigenvalues --  -24.84968 -24.84845 -24.83857 -24.83833 -24.83707
 Alpha  occ. eigenvalues --  -24.83700 -24.83565 -24.83528 -24.83504 -24.83405
 Alpha  occ. eigenvalues --  -24.83357 -24.83327 -24.83167 -24.83130 -24.82781
 Alpha  occ. eigenvalues --  -24.82688 -24.82327 -24.82235 -24.81544 -19.33271
 Alpha  occ. eigenvalues --  -19.32781 -19.23296 -19.22878 -14.55713 -14.52749
 Alpha  occ. eigenvalues --  -14.51263 -10.59745 -10.59404 -10.55851 -10.54882
 Alpha  occ. eigenvalues --  -10.53755 -10.52884 -10.49415 -10.48699 -10.45786
 Alpha  occ. eigenvalues --  -10.45249 -10.39114  -1.43461  -1.43233  -1.42197
 Alpha  occ. eigenvalues --   -1.41357  -1.40225  -1.38357  -1.36111  -1.36097
 Alpha  occ. eigenvalues --   -1.34936  -1.33752  -1.33703  -1.33638  -1.33374
 Alpha  occ. eigenvalues --   -1.33193  -1.32658  -1.32549  -1.32333  -1.31745
 Alpha  occ. eigenvalues --   -1.30756  -1.21336  -1.20822  -1.20117  -1.16444
 Alpha  occ. eigenvalues --   -1.11067  -1.08197  -1.02399  -0.93972  -0.92630
 Alpha  occ. eigenvalues --   -0.86794  -0.85589  -0.82384  -0.82031  -0.80931
 Alpha  occ. eigenvalues --   -0.79063  -0.76948  -0.75804  -0.73900  -0.73262
 Alpha  occ. eigenvalues --   -0.73175  -0.72289  -0.71680  -0.70938  -0.70653
 Alpha  occ. eigenvalues --   -0.70313  -0.69844  -0.69424  -0.68950  -0.68443
 Alpha  occ. eigenvalues --   -0.68173  -0.67355  -0.67185  -0.66755  -0.66192
 Alpha  occ. eigenvalues --   -0.64922  -0.64078  -0.63816  -0.63132  -0.60231
 Alpha  occ. eigenvalues --   -0.60068  -0.58602  -0.58310  -0.57576  -0.57450
 Alpha  occ. eigenvalues --   -0.57224  -0.56914  -0.56894  -0.56537  -0.56414
 Alpha  occ. eigenvalues --   -0.56012  -0.55780  -0.55409  -0.55079  -0.54841
 Alpha  occ. eigenvalues --   -0.54480  -0.54170  -0.54069  -0.53835  -0.53676
 Alpha  occ. eigenvalues --   -0.53538  -0.53177  -0.52954  -0.52693  -0.52353
 Alpha  occ. eigenvalues --   -0.51988  -0.51803  -0.51411  -0.51217  -0.51164
 Alpha  occ. eigenvalues --   -0.50879  -0.50775  -0.50449  -0.50290  -0.50254
 Alpha  occ. eigenvalues --   -0.49771  -0.49482  -0.49373  -0.49300  -0.48757
 Alpha  occ. eigenvalues --   -0.48453  -0.47990  -0.47133  -0.46029  -0.44827
 Alpha  occ. eigenvalues --   -0.43570  -0.39317  -0.38144  -0.37711  -0.36510
 Alpha  occ. eigenvalues --   -0.34994
 Alpha virt. eigenvalues --    0.01099   0.03182   0.04467   0.05822   0.07250
 Alpha virt. eigenvalues --    0.08121   0.09755   0.13218   0.14767   0.16122
 Alpha virt. eigenvalues --    0.16607   0.17009   0.18486   0.18928   0.19988

 Mulliken charges:
               1
     1  O   -0.488100
     2  C    0.789166
     3  N   -0.144406
     4  F   -0.200855
     5  C    0.105699
     6  N   -0.625089
     7  C    0.749192
     8  F   -0.240839
     9  F   -0.268549
    10  C    0.438288
    11  F   -0.273573
    12  O   -0.497319
    13  C    0.995285
    14  F   -0.236204
    15  F   -0.245208
    16  F   -0.243126
    17  C    0.815052
    18  F   -0.241811
    19  F   -0.247438
    20  F   -0.256381
    21  C    0.864223
    22  O   -0.495979
    23  N   -0.649203
    24  C    0.760876
    25  F   -0.249423
    26  F   -0.271489
    27  C    0.436523
    28  F   -0.269036
    29  O   -0.494347
    30  C    0.972731
    31  F   -0.239375
    32  F   -0.238167
    33  F   -0.233238
    34  C    0.819735
    35  F   -0.243290
    36  F   -0.260323
    37  F   -0.245943
    38  H    0.184761
    39  H    0.167180
 Sum of Mulliken charges =   0.00000

 Dipole moment (field-independent basis, Debye):
    X=              3.5107    Y=             -2.5424    Z=              0.2433  Tot=              4.3415
 Quadrupole moment (field-independent basis, Debye-Ang):
   XX=           -205.8981   YY=           -187.9494   ZZ=           -196.1863
   XY=            -11.4934   XZ=              5.3498   YZ=              3.8204

 Normal termination of Gaussian 09 at Tue Mar  5 18:33:30 2024.
