 Gaussian 09, Revision D.01,
 Gaussian 09:  ES64L-G09RevD.01 24-Apr-2013

 ----------------------------------------------------------------------
 #p CAM-B3LYP/6-31G(d,p) SCRF=(PCM,Solvent=Generic,Read) NoSymm out=wfn
 ----------------------------------------------------------------------

 --------------
 Title TAG1_pos
 --------------
 Symbolic Z-matrix:
 Charge =  1 Multiplicity = 2

                          Input orientation:
 ---------------------------------------------------------------------
 Center     Atomic      Atomic             Coordinates (Angstroms)
 Number     Number       Type             X           Y           Z
 ---------------------------------------------------------------------
      1          8           0        1.336499    0.357592   -2.640353
      2          6           0        0.651266    0.529418   -1.644946
      3          7           0       -0.015267    1.708732   -1.319724
      4          6           0        0.026433    2.886543   -2.163044
      5          6           0        1.031936    3.946173   -1.713858
      6          6           0        2.480494    3.469689   -1.802213
      7          6           0        3.510185    4.484943   -1.303928
      8          9           0        4.706800    3.826945   -1.237787
      9          9           0        3.201989    4.820311   -0.016232
     10          6           0        3.652818    5.768321   -2.164537
     11          9           0        3.950674    5.461850   -3.454221
     12          9           0        2.438968    6.395631   -2.226700
     13          8           0        4.537841    6.774888   -1.742583
     14          6           0        5.822119    6.271651   -1.529870
     15          9           0        6.183724    5.390718   -2.480918
     16          9           0        6.692665    7.304042   -1.554380
     17          9           0        5.888049    5.697346   -0.312629
     18          6           0       -0.398528    1.709013    0.076599
     19          6           0       -0.251366    0.219962    0.475208
     20          7           0        0.462613   -0.394301   -0.611852
     21          6           0        1.407380   -1.470342   -0.377149
     22          6           0        1.467505   -2.494165   -1.515447
     23          6           0        2.194896   -3.794262   -1.148552
     24          6           0        3.689646   -3.624308   -0.875369
     25          9           0        3.858010   -2.747068    0.158220
     26          9           0        4.274992   -3.049398   -1.965282
     27          6           0        4.385496   -4.959260   -0.521360
     28          9           0        5.714715   -4.761380   -0.349994
     29          9           0        4.226992   -5.850000   -1.529985
     30          8           0        3.832687   -5.517958    0.652895
     31          6           0        4.647672   -6.558498    1.111063
     32          9           0        5.824600   -6.095088    1.558900
     33          9           0        4.016239   -7.153279    2.149547
     34          9           0        4.842284   -7.486231    0.154728
     35          7           0       -1.618282   -0.218791    0.631397
     36          6           0       -2.037096   -1.596739    0.722019
     37          6           0       -2.485275   -2.129593   -0.636541
     38          6           0       -3.041083   -3.550825   -0.542236
     39          6           0       -3.376040   -4.103403   -1.926654
     40          9           0       -4.235831   -3.255314   -2.557517
     41          9           0       -2.233223   -4.114362   -2.674639
     42          6           0       -3.979499   -5.519351   -1.867657
     43          9           0       -5.126609   -5.507817   -1.142024
     44          9           0       -3.122157   -6.357713   -1.231588
     45          8           0       -4.278171   -6.012863   -3.153443
     46          6           0       -4.490350   -7.395346   -3.088625
     47          9           0       -5.023232   -7.797579   -4.264388
     48          9           0       -5.340299   -7.735863   -2.106948
     49          9           0       -3.320113   -8.036925   -2.919800
     50          6           0       -2.504934    0.852041    0.595041
     51          8           0       -3.705332    0.792254    0.806754
     52          7           0       -1.786012    2.008117    0.324990
     53          6           0       -2.326622    3.347833    0.436231
     54          6           0       -2.138778    3.951532    1.831099
     55          6           0       -3.125714    3.392826    2.862263
     56          6           0       -3.036644    4.075055    4.230799
     57          9           0       -3.166864    5.421249    4.049413
     58          9           0       -4.132992    3.709073    4.957143
     59          6           0       -1.743692    3.757660    5.029766
     60          9           0       -0.669853    4.250027    4.341559
     61          9           0       -1.717719    4.413465    6.216342
     62          8           0       -1.423317    2.407268    5.265217
     63          6           0       -2.423647    1.775991    6.015393
     64          9           0       -2.918179    2.560237    6.983162
     65          9           0       -3.410771    1.377298    5.192904
     66          9           0       -1.889802    0.674466    6.580480
     67          1           0        0.260998    2.576620   -3.186595
     68          1           0       -0.980262    3.314712   -2.191766
     69          1           0        0.892088    4.816115   -2.364179
     70          1           0        0.805205    4.268197   -0.690382
     71          1           0        2.721134    3.178939   -2.834851
     72          1           0        2.599544    2.565577   -1.192175
     73          1           0        0.274102    2.348873    0.659825
     74          1           0        0.280344    0.106823    1.425910
     75          1           0        1.122062   -1.973000    0.553245
     76          1           0        2.393177   -1.002943   -0.225709
     77          1           0        1.948839   -2.055895   -2.395104
     78          1           0        0.449530   -2.759513   -1.826919
     79          1           0        1.696664   -4.242265   -0.281413
     80          1           0        2.070583   -4.487204   -1.985123
     81          1           0       -1.221760   -2.192642    1.142610
     82          1           0       -2.878092   -1.642273    1.419348
     83          1           0       -1.646075   -2.101721   -1.342679
     84          1           0       -3.253335   -1.467841   -1.058634
     85          1           0       -3.942055   -3.539147    0.084647
     86          1           0       -2.302249   -4.201433   -0.058385
     87          1           0       -3.390498    3.324592    0.180699
     88          1           0       -1.833365    3.984678   -0.301516
     89          1           0       -1.106762    3.790843    2.154266
     90          1           0       -2.288353    5.035342    1.758691
     91          1           0       -4.144864    3.539271    2.486317
     92          1           0       -2.991491    2.313154    2.975715
 ---------------------------------------------------------------------

 SCF Done:  E(UCAM-B3LYP) =  -4547.00469416     A.U. after   32 cycles

 Alpha  occ. eigenvalues --  -24.85477 -24.85281 -24.84930 -24.84548 -24.84506
 Alpha  occ. eigenvalues --  -24.84487 -24.84473 -24.84349 -24.84054 -24.83911
 Alpha  occ. eigenvalues --  -24.83898 -24.83891 -24.83879 -24.83792 -24.83763
 Alpha  occ. eigenvalues --  -24.83753 -24.83696 -24.83641 -24.83467 -24.83451
 Alpha  occ. eigenvalues --  -24.82705 -24.82679 -24.82659 -24.82642 -24.82491
 Alpha  occ. eigenvalues --  -24.82450 -24.82367 -24.82035 -19.34811 -19.33744
 Alpha  occ. eigenvalues --  -19.33663 -19.33556 -19.27140 -19.25833 -14.58327
 Alpha  occ. eigenvalues --  -14.57448 -14.52243 -14.51563 -10.61319 -10.60306
 Alpha  occ. eigenvalues --  -10.60249 -10.60162 -10.54745 -10.54278 -10.54258
 Alpha  occ. eigenvalues --  -10.54010 -10.48787 -10.48603 -10.48431 -10.48407
 Alpha  occ. eigenvalues --  -10.48047 -10.46057 -10.43730 -10.43582 -10.37606
 Alpha  occ. eigenvalues --  -10.37173 -10.35164 -10.34884 -10.32390 -10.32281
 Alpha  occ. eigenvalues --  -10.32094 -10.31769 -10.31279 -10.30987 -10.30673
 Alpha  occ. eigenvalues --  -10.30423  -1.44900  -1.43830  -1.43828  -1.43677
 Alpha  occ. eigenvalues --   -1.40566  -1.40406  -1.40162  -1.39989  -1.37695
 Alpha  occ. eigenvalues --   -1.37677  -1.37436  -1.37331  -1.35506  -1.34704
 Alpha  occ. eigenvalues --   -1.34489  -1.34410  -1.34314  -1.33517  -1.33510
 Alpha  occ. eigenvalues --   -1.33468  -1.33108  -1.32955  -1.32918  -1.32669
 Alpha  occ. eigenvalues --   -1.31526  -1.31466  -1.31437  -1.31155  -1.24819
 Alpha  occ. eigenvalues --   -1.22800  -1.21867  -1.21744  -1.21664  -1.20774
 Alpha  occ. eigenvalues --   -1.16166  -1.13240  -1.11145  -1.07026  -0.97087
 Alpha  occ. eigenvalues --   -0.94944  -0.94756  -0.93677  -0.92589  -0.91037
 Alpha  occ. eigenvalues --   -0.90370  -0.89340  -0.88963  -0.87434  -0.86179
 Alpha  occ. eigenvalues --   -0.85850  -0.84221  -0.82966  -0.82068  -0.81352
 Alpha  occ. eigenvalues --   -0.80625  -0.79739  -0.78154  -0.77374  -0.76990
 Alpha  occ. eigenvalues --   -0.76232  -0.75535  -0.74600  -0.74120  -0.73830
 Alpha  occ. eigenvalues --   -0.72668  -0.72587  -0.72484  -0.72197  -0.72185
 Alpha  occ. eigenvalues --   -0.72037  -0.71783  -0.71660  -0.71566  -0.71424
 Alpha  occ. eigenvalues --   -0.71230  -0.71029  -0.71023  -0.70726  -0.69574
 Alpha  occ. eigenvalues --   -0.68992  -0.68833  -0.68636  -0.68325  -0.68042
 Alpha  occ. eigenvalues --   -0.68000  -0.67825  -0.67666  -0.67410  -0.65948
 Alpha  occ. eigenvalues --   -0.65443  -0.65405  -0.65232  -0.64517  -0.63948
 Alpha  occ. eigenvalues --   -0.63801  -0.63403  -0.62808  -0.62340  -0.62286
 Alpha  occ. eigenvalues --   -0.62147  -0.61841  -0.61656  -0.61348  -0.60327
 Alpha  occ. eigenvalues --   -0.59973  -0.59273  -0.59129  -0.58734  -0.58585
 Alpha  occ. eigenvalues --   -0.58546  -0.58402  -0.57916  -0.57672  -0.57499
 Alpha  occ. eigenvalues --   -0.57463  -0.57246  -0.56982  -0.56853  -0.56684
 Alpha  occ. eigenvalues --   -0.56605  -0.56317  -0.56281  -0.55825  -0.55730
 Alpha  occ. eigenvalues --   -0.55594  -0.55246  -0.55210  -0.55144  -0.55091
 Alpha  occ. eigenvalues --   -0.54886  -0.54591  -0.54427  -0.54333  -0.54182
 Alpha  occ. eigenvalues --   -0.54003  -0.53861  -0.53763  -0.53727  -0.53504
 Alpha  occ. eigenvalues --   -0.53421  -0.53341  -0.52929  -0.52902  -0.52822
 Alpha  occ. eigenvalues --   -0.52767  -0.52620  -0.52313  -0.52183  -0.52169
 Alpha  occ. eigenvalues --   -0.51917  -0.51838  -0.51771  -0.51756  -0.51503
 Alpha  occ. eigenvalues --   -0.51423  -0.51060  -0.50995  -0.50919  -0.50773
 Alpha  occ. eigenvalues --   -0.50603  -0.50598  -0.50510  -0.50434  -0.50300
 Alpha  occ. eigenvalues --   -0.50255  -0.50156  -0.50141  -0.49921  -0.49690
 Alpha  occ. eigenvalues --   -0.49573  -0.49508  -0.48969  -0.48611  -0.47821
 Alpha  occ. eigenvalues --   -0.47788  -0.47026  -0.46804  -0.46605  -0.46513
 Alpha  occ. eigenvalues --   -0.46269  -0.45991  -0.45803  -0.45432  -0.45218
 Alpha  occ. eigenvalues --   -0.44833  -0.44641  -0.44276  -0.43459  -0.43035
 Alpha  occ. eigenvalues --   -0.42447  -0.41889  -0.41468  -0.39511  -0.39026
 Alpha  occ. eigenvalues --   -0.37035
 Alpha virt. eigenvalues --    0.01145   0.02609   0.05948   0.06661   0.07776
 Alpha virt. eigenvalues --    0.07920   0.08570   0.09166   0.09726   0.09777
 Alpha virt. eigenvalues --    0.09928   0.10148   0.10395   0.11026   0.11355

  Beta  occ. eigenvalues --  -24.85477 -24.85281 -24.84930 -24.84548 -24.84506
  Beta  occ. eigenvalues --  -24.84487 -24.84472 -24.84349 -24.84054 -24.83911
  Beta  occ. eigenvalues --  -24.83898 -24.83891 -24.83879 -24.83792 -24.83763
  Beta  occ. eigenvalues --  -24.83753 -24.83696 -24.83641 -24.83467 -24.83451
  Beta  occ. eigenvalues --  -24.82705 -24.82679 -24.82659 -24.82640 -24.82491
  Beta  occ. eigenvalues --  -24.82449 -24.82367 -24.82035 -19.34811 -19.33744
  Beta  occ. eigenvalues --  -19.33663 -19.33555 -19.27299 -19.25782 -14.57311
  Beta  occ. eigenvalues --  -14.56602 -14.51967 -14.51351 -10.61319 -10.60306
  Beta  occ. eigenvalues --  -10.60249 -10.60162 -10.54745 -10.54278 -10.54257
  Beta  occ. eigenvalues --  -10.54010 -10.48784 -10.48599 -10.48511 -10.48431
  Beta  occ. eigenvalues --  -10.48047 -10.46077 -10.43760 -10.43600 -10.37628
  Beta  occ. eigenvalues --  -10.37190 -10.35169 -10.34889 -10.32304 -10.32196
  Beta  occ. eigenvalues --  -10.32090 -10.31771 -10.31279 -10.30987 -10.30665
  Beta  occ. eigenvalues --  -10.30414  -1.44900  -1.43830  -1.43828  -1.43677
  Beta  occ. eigenvalues --   -1.40565  -1.40405  -1.40162  -1.39989  -1.37694
  Beta  occ. eigenvalues --   -1.37674  -1.37436  -1.37329  -1.35506  -1.34704
  Beta  occ. eigenvalues --   -1.34489  -1.34409  -1.34314  -1.33517  -1.33510
  Beta  occ. eigenvalues --   -1.33468  -1.33108  -1.32955  -1.32918  -1.32669
  Beta  occ. eigenvalues --   -1.31526  -1.31464  -1.31435  -1.31154  -1.24039
  Beta  occ. eigenvalues --   -1.22800  -1.21867  -1.21744  -1.21663  -1.20615
  Beta  occ. eigenvalues --   -1.15926  -1.11702  -1.10576  -1.06255  -0.96873
  Beta  occ. eigenvalues --   -0.94762  -0.94699  -0.93638  -0.92482  -0.90955
  Beta  occ. eigenvalues --   -0.90222  -0.89201  -0.88894  -0.87339  -0.86133
  Beta  occ. eigenvalues --   -0.85758  -0.84077  -0.82882  -0.81901  -0.81296
  Beta  occ. eigenvalues --   -0.80461  -0.79618  -0.78007  -0.77342  -0.76909
  Beta  occ. eigenvalues --   -0.76199  -0.75372  -0.74538  -0.73927  -0.73669
  Beta  occ. eigenvalues --   -0.72616  -0.72509  -0.72229  -0.72186  -0.72159
  Beta  occ. eigenvalues --   -0.71858  -0.71704  -0.71601  -0.71520  -0.71235
  Beta  occ. eigenvalues --   -0.71098  -0.71023  -0.70904  -0.70682  -0.69518
  Beta  occ. eigenvalues --   -0.68832  -0.68719  -0.68320  -0.68248  -0.68033
  Beta  occ. eigenvalues --   -0.67984  -0.67687  -0.67578  -0.67394  -0.65606
  Beta  occ. eigenvalues --   -0.65419  -0.65398  -0.65126  -0.64456  -0.63718
  Beta  occ. eigenvalues --   -0.63593  -0.63263  -0.62457  -0.62286  -0.62216
  Beta  occ. eigenvalues --   -0.62052  -0.61576  -0.61338  -0.61205  -0.59886
  Beta  occ. eigenvalues --   -0.59644  -0.59045  -0.58726  -0.58582  -0.58536
  Beta  occ. eigenvalues --   -0.58492  -0.58080  -0.57915  -0.57613  -0.57454
  Beta  occ. eigenvalues --   -0.57340  -0.57066  -0.56934  -0.56819  -0.56626
  Beta  occ. eigenvalues --   -0.56596  -0.56299  -0.56270  -0.55789  -0.55668
  Beta  occ. eigenvalues --   -0.55380  -0.55205  -0.55197  -0.55123  -0.55050
  Beta  occ. eigenvalues --   -0.54788  -0.54399  -0.54395  -0.54201  -0.54133
  Beta  occ. eigenvalues --   -0.53959  -0.53841  -0.53707  -0.53630  -0.53480
  Beta  occ. eigenvalues --   -0.53334  -0.53232  -0.52898  -0.52871  -0.52774
  Beta  occ. eigenvalues --   -0.52576  -0.52491  -0.52290  -0.52131  -0.52111
  Beta  occ. eigenvalues --   -0.51880  -0.51774  -0.51768  -0.51590  -0.51484
  Beta  occ. eigenvalues --   -0.51420  -0.51025  -0.50965  -0.50899  -0.50722
  Beta  occ. eigenvalues --   -0.50595  -0.50587  -0.50477  -0.50421  -0.50279
  Beta  occ. eigenvalues --   -0.50233  -0.50116  -0.50091  -0.49878  -0.49664
  Beta  occ. eigenvalues --   -0.49510  -0.49438  -0.48911  -0.48548  -0.47714
  Beta  occ. eigenvalues --   -0.47646  -0.46919  -0.46784  -0.46536  -0.46490
  Beta  occ. eigenvalues --   -0.46262  -0.45909  -0.45651  -0.45360  -0.45081
  Beta  occ. eigenvalues --   -0.44770  -0.44412  -0.44020  -0.43405  -0.42941
  Beta  occ. eigenvalues --   -0.41923  -0.39363  -0.39116  -0.37616  -0.35844
  Beta virt. eigenvalues --   -0.22783   0.01584   0.02852   0.06090   0.06815
  Beta virt. eigenvalues --    0.07830   0.08079   0.08616   0.09291   0.09780
  Beta virt. eigenvalues --    0.09811   0.09951   0.10234   0.10464   0.11134

 Mulliken charges and spin densities:
               1          2
     1  O   -0.503812   0.020104
     2  C    0.816895  -0.016347
     3  N   -0.469959   0.089574
     4  C   -0.093499  -0.004041
     5  C   -0.222467   0.003764
     6  C   -0.254587  -0.000026
     7  C    0.546759   0.000067
     8  F   -0.285950   0.000037
     9  F   -0.284233   0.000012
    10  C    0.741150  -0.000009
    11  F   -0.254660   0.000001
    12  F   -0.264883   0.000039
    13  O   -0.489525  -0.000001
    14  C    0.981973   0.000000
    15  F   -0.243809   0.000000
    16  F   -0.245153   0.000000
    17  F   -0.245566   0.000000
    18  C    0.169413  -0.019899
    19  C    0.179408  -0.029234
    20  N   -0.488451   0.116921
    21  C   -0.069765  -0.004968
    22  C   -0.219028   0.003349
    23  C   -0.268527   0.000308
    24  C    0.546562   0.000037
    25  F   -0.281070   0.000285
    26  F   -0.279923   0.000012
    27  C    0.759207  -0.000019
    28  F   -0.260926  -0.000001
    29  F   -0.258369   0.000013
    30  O   -0.513788   0.000003
    31  C    0.986212   0.000000
    32  F   -0.238747   0.000000
    33  F   -0.251912   0.000000
    34  F   -0.243339   0.000000
    35  N   -0.390349   0.462105
    36  C   -0.090863  -0.020714
    37  C   -0.219196   0.040172
    38  C   -0.256400   0.002428
    39  C    0.539991   0.001738
    40  F   -0.280533  -0.000006
    41  F   -0.283604   0.000000
    42  C    0.774341   0.000452
    43  F   -0.261406   0.000004
    44  F   -0.265388  -0.000004
    45  O   -0.515505   0.000084
    46  C    0.988069   0.000042
    47  F   -0.247996   0.000018
    48  F   -0.242074   0.000002
    49  F   -0.246013   0.000000
    50  C    0.828215  -0.064441
    51  O   -0.502937  -0.056568
    52  N   -0.405561   0.384099
    53  C   -0.106088  -0.018432
    54  C   -0.217711   0.037112
    55  C   -0.260837  -0.000988
    56  C    0.552927   0.001101
    57  F   -0.276495   0.000078
    58  F   -0.280370   0.000327
    59  C    0.729103  -0.000007
    60  F   -0.264346   0.000106
    61  F   -0.251990   0.000035
    62  O   -0.498402  -0.000007
    63  C    0.981976  -0.000001
    64  F   -0.231446   0.000000
    65  F   -0.242898  -0.000002
    66  F   -0.242880   0.000000
    67  H    0.176480   0.001140
    68  H    0.151677   0.004631
    69  H    0.153545   0.000352
    70  H    0.120688  -0.000182
    71  H    0.161021   0.000029
    72  H    0.139206   0.000013
    73  H    0.197501  -0.000203
    74  H    0.214660   0.013238
    75  H    0.141827   0.001360
    76  H    0.165054   0.011792
    77  H    0.163216  -0.000223
    78  H    0.130369   0.000435
    79  H    0.143174  -0.000017
    80  H    0.161332   0.000163
    81  H    0.171405   0.003313
    82  H    0.197889   0.019187
    83  H    0.148404  -0.000957
    84  H    0.161013  -0.001511
    85  H    0.163697   0.000166
    86  H    0.153179  -0.000101
    87  H    0.193347   0.005623
    88  H    0.173980   0.010394
    89  H    0.137735  -0.001266
    90  H    0.167532   0.003250
    91  H    0.169725   0.000221
    92  H    0.133379   0.000434
 Sum of Mulliken charges =   1.00000   1.00000

 Dipole moment (field-independent basis, Debye):
    X=             -6.0584    Y=              3.2011    Z=              1.8659  Tot=              7.1016
 Quadrupole moment (field-independent basis, Debye-Ang):
   XX=           -372.0234   YY=           -338.0220   ZZ=           -366.7309
   XY=            -12.9879   XZ=             -1.3270   YZ=            -15.5140

 Normal termination of Gaussian 09 at Sun Feb  2 07:08:41 2025.
