 Gaussian 09, Revision D.01,
 Gaussian 09:  ES64L-G09RevD.01 24-Apr-2013

 ----------------------------------------------------------------------
 #p CAM-B3LYP/6-31G(d,p) SCRF=(PCM,Solvent=Generic,Read) NoSymm out=wfn
 ----------------------------------------------------------------------

 --------------
 Title TAG1_neu
 --------------
 Symbolic Z-matrix:
 Charge =  0 Multiplicity = 1

                          Input orientation:
 ---------------------------------------------------------------------
 Center     Atomic      Atomic             Coordinates (Angstroms)
 Number     Number       Type             X           Y           Z
 ---------------------------------------------------------------------
      1          8           0        1.336499    0.357592   -2.640353
      2          6           0        0.651266    0.529418   -1.644946
      3          7           0       -0.015267    1.708732   -1.319724
      4          6           0        0.026433    2.886543   -2.163044
      5          6           0        1.031936    3.946173   -1.713858
      6          6           0        2.480494    3.469689   -1.802213
      7          6           0        3.510185    4.484943   -1.303928
      8          9           0        4.706800    3.826945   -1.237787
      9          9           0        3.201989    4.820311   -0.016232
     10          6           0        3.652818    5.768321   -2.164537
     11          9           0        3.950674    5.461850   -3.454221
     12          9           0        2.438968    6.395631   -2.226700
     13          8           0        4.537841    6.774888   -1.742583
     14          6           0        5.822119    6.271651   -1.529870
     15          9           0        6.183724    5.390718   -2.480918
     16          9           0        6.692665    7.304042   -1.554380
     17          9           0        5.888049    5.697346   -0.312629
     18          6           0       -0.398528    1.709013    0.076599
     19          6           0       -0.251366    0.219962    0.475208
     20          7           0        0.462613   -0.394301   -0.611852
     21          6           0        1.407380   -1.470342   -0.377149
     22          6           0        1.467505   -2.494165   -1.515447
     23          6           0        2.194896   -3.794262   -1.148552
     24          6           0        3.689646   -3.624308   -0.875369
     25          9           0        3.858010   -2.747068    0.158220
     26          9           0        4.274992   -3.049398   -1.965282
     27          6           0        4.385496   -4.959260   -0.521360
     28          9           0        5.714715   -4.761380   -0.349994
     29          9           0        4.226992   -5.850000   -1.529985
     30          8           0        3.832687   -5.517958    0.652895
     31          6           0        4.647672   -6.558498    1.111063
     32          9           0        5.824600   -6.095088    1.558900
     33          9           0        4.016239   -7.153279    2.149547
     34          9           0        4.842284   -7.486231    0.154728
     35          7           0       -1.618282   -0.218791    0.631397
     36          6           0       -2.037096   -1.596739    0.722019
     37          6           0       -2.485275   -2.129593   -0.636541
     38          6           0       -3.041083   -3.550825   -0.542236
     39          6           0       -3.376040   -4.103403   -1.926654
     40          9           0       -4.235831   -3.255314   -2.557517
     41          9           0       -2.233223   -4.114362   -2.674639
     42          6           0       -3.979499   -5.519351   -1.867657
     43          9           0       -5.126609   -5.507817   -1.142024
     44          9           0       -3.122157   -6.357713   -1.231588
     45          8           0       -4.278171   -6.012863   -3.153443
     46          6           0       -4.490350   -7.395346   -3.088625
     47          9           0       -5.023232   -7.797579   -4.264388
     48          9           0       -5.340299   -7.735863   -2.106948
     49          9           0       -3.320113   -8.036925   -2.919800
     50          6           0       -2.504934    0.852041    0.595041
     51          8           0       -3.705332    0.792254    0.806754
     52          7           0       -1.786012    2.008117    0.324990
     53          6           0       -2.326622    3.347833    0.436231
     54          6           0       -2.138778    3.951532    1.831099
     55          6           0       -3.125714    3.392826    2.862263
     56          6           0       -3.036644    4.075055    4.230799
     57          9           0       -3.166864    5.421249    4.049413
     58          9           0       -4.132992    3.709073    4.957143
     59          6           0       -1.743692    3.757660    5.029766
     60          9           0       -0.669853    4.250027    4.341559
     61          9           0       -1.717719    4.413465    6.216342
     62          8           0       -1.423317    2.407268    5.265217
     63          6           0       -2.423647    1.775991    6.015393
     64          9           0       -2.918179    2.560237    6.983162
     65          9           0       -3.410771    1.377298    5.192904
     66          9           0       -1.889802    0.674466    6.580480
     67          1           0        0.260998    2.576620   -3.186595
     68          1           0       -0.980262    3.314712   -2.191766
     69          1           0        0.892088    4.816115   -2.364179
     70          1           0        0.805205    4.268197   -0.690382
     71          1           0        2.721134    3.178939   -2.834851
     72          1           0        2.599544    2.565577   -1.192175
     73          1           0        0.274102    2.348873    0.659825
     74          1           0        0.280344    0.106823    1.425910
     75          1           0        1.122062   -1.973000    0.553245
     76          1           0        2.393177   -1.002943   -0.225709
     77          1           0        1.948839   -2.055895   -2.395104
     78          1           0        0.449530   -2.759513   -1.826919
     79          1           0        1.696664   -4.242265   -0.281413
     80          1           0        2.070583   -4.487204   -1.985123
     81          1           0       -1.221760   -2.192642    1.142610
     82          1           0       -2.878092   -1.642273    1.419348
     83          1           0       -1.646075   -2.101721   -1.342679
     84          1           0       -3.253335   -1.467841   -1.058634
     85          1           0       -3.942055   -3.539147    0.084647
     86          1           0       -2.302249   -4.201433   -0.058385
     87          1           0       -3.390498    3.324592    0.180699
     88          1           0       -1.833365    3.984678   -0.301516
     89          1           0       -1.106762    3.790843    2.154266
     90          1           0       -2.288353    5.035342    1.758691
     91          1           0       -4.144864    3.539271    2.486317
     92          1           0       -2.991491    2.313154    2.975715
 ---------------------------------------------------------------------

 SCF Done:  E(RCAM-B3LYP) =  -4547.26607204     A.U. after   13 cycles

 Alpha  occ. eigenvalues --  -24.83806 -24.83307 -24.83284 -24.83281 -24.83236
 Alpha  occ. eigenvalues --  -24.83175 -24.82922 -24.82823 -24.82802 -24.82743
 Alpha  occ. eigenvalues --  -24.82677 -24.82606 -24.82540 -24.82422 -24.82271
 Alpha  occ. eigenvalues --  -24.82249 -24.82246 -24.81977 -24.81956 -24.81610
 Alpha  occ. eigenvalues --  -24.80583 -24.80553 -24.80546 -24.80412 -24.80304
 Alpha  occ. eigenvalues --  -24.80301 -24.80204 -24.80203 -19.32747 -19.32366
 Alpha  occ. eigenvalues --  -19.32292 -19.32026 -19.19839 -19.19400 -14.44115
 Alpha  occ. eigenvalues --  -14.44088 -14.44040 -14.43681 -10.59455 -10.59111
 Alpha  occ. eigenvalues --  -10.59033 -10.58879 -10.52664 -10.52601 -10.52486
 Alpha  occ. eigenvalues --  -10.52356 -10.46404 -10.46167 -10.46094 -10.46000
 Alpha  occ. eigenvalues --  -10.39829 -10.39589 -10.35716 -10.35530 -10.30765
 Alpha  occ. eigenvalues --  -10.30689 -10.30601 -10.30550 -10.28668 -10.28619
 Alpha  occ. eigenvalues --  -10.28589 -10.28251 -10.27411 -10.27197 -10.27071
 Alpha  occ. eigenvalues --  -10.26875  -1.43075  -1.42658  -1.42553  -1.42461
 Alpha  occ. eigenvalues --   -1.38756  -1.38705  -1.38528  -1.38439  -1.35589
 Alpha  occ. eigenvalues --   -1.35451  -1.35444  -1.35374  -1.33706  -1.33328
 Alpha  occ. eigenvalues --   -1.33107  -1.33091  -1.32870  -1.32335  -1.32319
 Alpha  occ. eigenvalues --   -1.32223  -1.31594  -1.31584  -1.31129  -1.30965
 Alpha  occ. eigenvalues --   -1.29519  -1.29309  -1.29233  -1.29204  -1.20757
 Alpha  occ. eigenvalues --   -1.20501  -1.20381  -1.20142  -1.15561  -1.13812
 Alpha  occ. eigenvalues --   -1.08312  -1.03370  -1.02868  -0.99043  -0.91905
 Alpha  occ. eigenvalues --   -0.91468  -0.91213  -0.90916  -0.88498  -0.87500
 Alpha  occ. eigenvalues --   -0.86803  -0.86252  -0.84469  -0.83198  -0.82241
 Alpha  occ. eigenvalues --   -0.81362  -0.80993  -0.79524  -0.79176  -0.78351
 Alpha  occ. eigenvalues --   -0.77450  -0.75380  -0.75069  -0.74929  -0.74159
 Alpha  occ. eigenvalues --   -0.73472  -0.71759  -0.71661  -0.71048  -0.70866
 Alpha  occ. eigenvalues --   -0.70707  -0.70554  -0.70296  -0.70283  -0.70113
 Alpha  occ. eigenvalues --   -0.69952  -0.69867  -0.69765  -0.69480  -0.69210
 Alpha  occ. eigenvalues --   -0.68681  -0.68362  -0.67315  -0.67034  -0.66711
 Alpha  occ. eigenvalues --   -0.66509  -0.66303  -0.66067  -0.65891  -0.65818
 Alpha  occ. eigenvalues --   -0.64623  -0.64340  -0.63567  -0.63163  -0.62894
 Alpha  occ. eigenvalues --   -0.62704  -0.62239  -0.61340  -0.61087  -0.60965
 Alpha  occ. eigenvalues --   -0.60855  -0.60699  -0.60246  -0.59790  -0.59693
 Alpha  occ. eigenvalues --   -0.59492  -0.58148  -0.57321  -0.57149  -0.56860
 Alpha  occ. eigenvalues --   -0.56716  -0.56593  -0.56423  -0.56020  -0.56014
 Alpha  occ. eigenvalues --   -0.55834  -0.55403  -0.55286  -0.55267  -0.54991
 Alpha  occ. eigenvalues --   -0.54779  -0.54649  -0.54334  -0.54132  -0.53971
 Alpha  occ. eigenvalues --   -0.53959  -0.53797  -0.53721  -0.53347  -0.53309
 Alpha  occ. eigenvalues --   -0.52710  -0.52583  -0.52549  -0.52464  -0.52260
 Alpha  occ. eigenvalues --   -0.52100  -0.51833  -0.51767  -0.51706  -0.51594
 Alpha  occ. eigenvalues --   -0.51558  -0.51419  -0.51303  -0.51243  -0.51025
 Alpha  occ. eigenvalues --   -0.50748  -0.50660  -0.50472  -0.50422  -0.50389
 Alpha  occ. eigenvalues --   -0.50315  -0.50091  -0.49979  -0.49965  -0.49787
 Alpha  occ. eigenvalues --   -0.49741  -0.49534  -0.49413  -0.49207  -0.49178
 Alpha  occ. eigenvalues --   -0.49080  -0.49036  -0.48965  -0.48762  -0.48491
 Alpha  occ. eigenvalues --   -0.48435  -0.48311  -0.48115  -0.48047  -0.47912
 Alpha  occ. eigenvalues --   -0.47675  -0.47443  -0.47222  -0.46987  -0.46590
 Alpha  occ. eigenvalues --   -0.46255  -0.45862  -0.45507  -0.45262  -0.45128
 Alpha  occ. eigenvalues --   -0.45009  -0.44883  -0.44668  -0.43371  -0.43336
 Alpha  occ. eigenvalues --   -0.42522  -0.42178  -0.41943  -0.41859  -0.41733
 Alpha  occ. eigenvalues --   -0.41523  -0.41200  -0.41115  -0.40964  -0.40179
 Alpha  occ. eigenvalues --   -0.34907  -0.34168  -0.33078  -0.32271  -0.30485
 Alpha  occ. eigenvalues --   -0.29343
 Alpha virt. eigenvalues --    0.08200   0.09491   0.09973   0.10447   0.10616
 Alpha virt. eigenvalues --    0.11331   0.11773   0.11927   0.12322   0.12666
 Alpha virt. eigenvalues --    0.12745   0.13105   0.13786   0.14755   0.15390

 Mulliken charges:
               1
     1  O   -0.559271
     2  C    0.781614
     3  N   -0.485938
     4  C   -0.072240
     5  C   -0.217087
     6  C   -0.249205
     7  C    0.543136
     8  F   -0.289430
     9  F   -0.285376
    10  C    0.738893
    11  F   -0.256953
    12  F   -0.264818
    13  O   -0.491901
    14  C    0.980538
    15  F   -0.244362
    16  F   -0.247256
    17  F   -0.245403
    18  C    0.185047
    19  C    0.199350
    20  N   -0.508136
    21  C   -0.044469
    22  C   -0.210009
    23  C   -0.268332
    24  C    0.546387
    25  F   -0.280431
    26  F   -0.282881
    27  C    0.756068
    28  F   -0.263611
    29  F   -0.260584
    30  O   -0.511559
    31  C    0.984619
    32  F   -0.239862
    33  F   -0.252616
    34  F   -0.244837
    35  N   -0.501320
    36  C   -0.054781
    37  C   -0.203021
    38  C   -0.254701
    39  C    0.537642
    40  F   -0.284594
    41  F   -0.287351
    42  C    0.770777
    43  F   -0.264178
    44  F   -0.267795
    45  O   -0.516609
    46  C    0.985433
    47  F   -0.250154
    48  F   -0.243375
    49  F   -0.247020
    50  C    0.799815
    51  O   -0.578466
    52  N   -0.500397
    53  C   -0.072541
    54  C   -0.202071
    55  C   -0.253824
    56  C    0.545743
    57  F   -0.282383
    58  F   -0.287044
    59  C    0.726552
    60  F   -0.264436
    61  F   -0.257971
    62  O   -0.495676
    63  C    0.980705
    64  F   -0.235348
    65  F   -0.241157
    66  F   -0.244985
    67  H    0.146821
    68  H    0.130229
    69  H    0.132409
    70  H    0.116105
    71  H    0.149471
    72  H    0.143805
    73  H    0.140110
    74  H    0.142202
    75  H    0.119792
    76  H    0.129128
    77  H    0.148458
    78  H    0.121315
    79  H    0.137786
    80  H    0.148682
    81  H    0.118747
    82  H    0.137145
    83  H    0.129409
    84  H    0.134162
    85  H    0.146160
    86  H    0.136578
    87  H    0.143891
    88  H    0.123594
    89  H    0.117818
    90  H    0.124289
    91  H    0.151352
    92  H    0.135992
 Sum of Mulliken charges =   0.00000

 Dipole moment (field-independent basis, Debye):
    X=             -0.4943    Y=              0.0495    Z=              1.4670  Tot=              1.5489
 Quadrupole moment (field-independent basis, Debye-Ang):
   XX=           -400.9829   YY=           -374.2607   ZZ=           -383.4603
   XY=             -8.6524   XZ=              6.1721   YZ=            -19.5247

 Normal termination of Gaussian 09 at Sun Feb  2 05:52:14 2025.
