 Gaussian 09, Revision D.01,
 Gaussian 09:  ES64L-G09RevD.01 24-Apr-2013

 ----------------------------------------------------------------------
 #p CAM-B3LYP/6-31G(d,p) SCRF=(PCM,Solvent=Generic,Read) NoSymm out=wfn
 ----------------------------------------------------------------------

 ------------------
 Title A153226970_0
 ------------------
 Symbolic Z-matrix:
 Charge =  0 Multiplicity = 1

                          Input orientation:
 ---------------------------------------------------------------------
 Center     Atomic      Atomic             Coordinates (Angstroms)
 Number     Number       Type             X           Y           Z
 ---------------------------------------------------------------------
      1          6           0        0.057786    3.526778    1.412539
      2          7           0        0.042018    2.351592    0.558616
      3          6           0        1.209919    1.651572    0.349788
      4          8           0        2.204850    1.819204    1.050339
      5          7           0        1.160308    0.749088   -0.684339
      6          6           0        2.398147    0.087919   -1.077235
      7          9           0        2.354152   -0.162253   -2.416278
      8          9           0        3.429657    0.972933   -0.957634
      9          6           0        2.717724   -1.209425   -0.292662
     10          9           0        1.767346   -2.147728   -0.577393
     11          8           0        2.586967   -0.960778    1.112270
     12          6           0        3.084705   -2.004364    1.907206
     13          9           0        2.610108   -1.847278    3.156855
     14          9           0        2.686629   -3.197998    1.442384
     15          9           0        4.424499   -1.939681    1.940434
     16          6           0        4.086516   -1.673674   -0.808185
     17          9           0        4.128686   -1.798498   -2.152081
     18          9           0        4.419425   -2.887575   -0.305807
     19          9           0        5.074575   -0.823640   -0.449194
     20          6           0       -0.026993    0.175711   -1.080450
     21          8           0       -0.045048   -0.719840   -1.918698
     22          7           0       -1.165678    0.654139   -0.474817
     23          6           0       -2.465129    0.108658   -0.853141
     24          9           0       -2.953371    0.884370   -1.855091
     25          9           0       -2.326098   -1.134674   -1.403747
     26          6           0       -3.500967   -0.078776    0.302305
     27          9           0       -3.564755    0.970908    1.162293
     28          8           0       -3.314230   -1.246380    1.125531
     29          6           0       -2.080280   -1.277423    1.784200
     30          9           0       -1.129243   -1.696752    0.930755
     31          9           0       -2.147753   -2.133066    2.816848
     32          9           0       -1.730050   -0.062087    2.240387
     33          6           0       -4.858947   -0.208043   -0.391190
     34          9           0       -4.889059   -1.231050   -1.275568
     35          9           0       -5.841557   -0.451662    0.515673
     36          9           0       -5.220384    0.913322   -1.052572
     37          6           0       -1.164777    1.922161    0.055310
     38          8           0       -2.168871    2.629078    0.070232
     39          1           0       -0.350966    3.247153    2.388654
     40          1           0        1.071421    3.915561    1.543120
     41          1           0       -0.571281    4.312497    0.983045
 ---------------------------------------------------------------------

 SCF Done:  E(RCAM-B3LYP) =  -2795.80740213     A.U. after   13 cycles

 Alpha  occ. eigenvalues --  -24.85289 -24.84771 -24.84723 -24.83883 -24.83771
 Alpha  occ. eigenvalues --  -24.83650 -24.83438 -24.83337 -24.83296 -24.83195
 Alpha  occ. eigenvalues --  -24.83106 -24.83096 -24.83084 -24.83052 -24.83025
 Alpha  occ. eigenvalues --  -24.82859 -24.82819 -24.82568 -19.33674 -19.33312
 Alpha  occ. eigenvalues --  -19.24620 -19.24321 -19.24317 -14.53016 -14.52981
 Alpha  occ. eigenvalues --  -14.50851 -10.60749 -10.59824 -10.55506 -10.55251
 Alpha  occ. eigenvalues --  -10.53930 -10.53562 -10.49590 -10.49156 -10.46956
 Alpha  occ. eigenvalues --  -10.45965 -10.45859 -10.32015  -1.44409  -1.43471
 Alpha  occ. eigenvalues --   -1.41852  -1.41698  -1.39309  -1.39219  -1.36504
 Alpha  occ. eigenvalues --   -1.35889  -1.34709  -1.34490  -1.33793  -1.33531
 Alpha  occ. eigenvalues --   -1.32868  -1.32861  -1.32236  -1.32025  -1.31810
 Alpha  occ. eigenvalues --   -1.31711  -1.23598  -1.21159  -1.20849  -1.18321
 Alpha  occ. eigenvalues --   -1.17984  -1.10348  -1.08696  -1.07020  -0.94155
 Alpha  occ. eigenvalues --   -0.93599  -0.87410  -0.84731  -0.84248  -0.82231
 Alpha  occ. eigenvalues --   -0.81789  -0.79564  -0.78445  -0.76390  -0.75989
 Alpha  occ. eigenvalues --   -0.74769  -0.73569  -0.73089  -0.72505  -0.72032
 Alpha  occ. eigenvalues --   -0.71584  -0.70761  -0.70496  -0.69816  -0.69506
 Alpha  occ. eigenvalues --   -0.68667  -0.68498  -0.67557  -0.67270  -0.66951
 Alpha  occ. eigenvalues --   -0.66630  -0.66097  -0.65282  -0.64463  -0.62867
 Alpha  occ. eigenvalues --   -0.61152  -0.60146  -0.58860  -0.58423  -0.57781
 Alpha  occ. eigenvalues --   -0.57656  -0.57283  -0.57173  -0.56748  -0.56419
 Alpha  occ. eigenvalues --   -0.56225  -0.56067  -0.55942  -0.55717  -0.55357
 Alpha  occ. eigenvalues --   -0.55090  -0.54998  -0.54491  -0.54439  -0.54302
 Alpha  occ. eigenvalues --   -0.54102  -0.53857  -0.53675  -0.53561  -0.53118
 Alpha  occ. eigenvalues --   -0.52745  -0.52658  -0.52248  -0.51978  -0.51678
 Alpha  occ. eigenvalues --   -0.51460  -0.51016  -0.50768  -0.50604  -0.50506
 Alpha  occ. eigenvalues --   -0.50246  -0.50078  -0.49999  -0.49440  -0.49307
 Alpha  occ. eigenvalues --   -0.49073  -0.49024  -0.48844  -0.48455  -0.46333
 Alpha  occ. eigenvalues --   -0.46018  -0.45045  -0.44745  -0.40712  -0.39907
 Alpha  occ. eigenvalues --   -0.39462  -0.38313  -0.36870  -0.36010
 Alpha virt. eigenvalues --   -0.00687   0.00867   0.05304   0.05617   0.07122
 Alpha virt. eigenvalues --    0.09532   0.10597   0.13136   0.14707   0.15187
 Alpha virt. eigenvalues --    0.16639   0.17269   0.17884   0.18572   0.19307

 Mulliken charges:
               1
     1  C   -0.188618
     2  N   -0.570812
     3  C    0.822405
     4  O   -0.479904
     5  N   -0.648230
     6  C    0.759670
     7  F   -0.251088
     8  F   -0.253031
     9  C    0.433915
    10  F   -0.255975
    11  O   -0.507085
    12  C    0.994150
    13  F   -0.239784
    14  F   -0.241619
    15  F   -0.241210
    16  C    0.814491
    17  F   -0.242137
    18  F   -0.258634
    19  F   -0.245102
    20  C    0.817381
    21  O   -0.466860
    22  N   -0.648765
    23  C    0.756794
    24  F   -0.244609
    25  F   -0.247253
    26  C    0.417060
    27  F   -0.248249
    28  O   -0.503262
    29  C    0.997001
    30  F   -0.243561
    31  F   -0.228692
    32  F   -0.245854
    33  C    0.805461
    34  F   -0.242431
    35  F   -0.255703
    36  F   -0.241467
    37  C    0.810319
    38  O   -0.482656
    39  H    0.157392
    40  H    0.168625
    41  H    0.167927
 Sum of Mulliken charges =   0.00000

 Dipole moment (field-independent basis, Debye):
    X=              0.2821    Y=              2.0927    Z=              2.0885  Tot=              2.9700
 Quadrupole moment (field-independent basis, Debye-Ang):
   XX=           -215.6278   YY=           -194.6581   ZZ=           -202.1137
   XY=              2.0157   XZ=             -3.1936   YZ=             -1.1766

 Normal termination of Gaussian 09 at Tue Mar  5 17:24:11 2024.
