 Gaussian 09, Revision D.01,
 Gaussian 09:  ES64L-G09RevD.01 24-Apr-2013

 ----------------------------------------------------------------------
 #p CAM-B3LYP/6-31G(d,p) SCRF=(PCM,Solvent=Generic,Read) NoSymm out=wfn
 ----------------------------------------------------------------------

 -------------------
 Title A153226970_p1
 -------------------
 Symbolic Z-matrix:
 Charge =  1 Multiplicity = 2

                          Input orientation:
 ---------------------------------------------------------------------
 Center     Atomic      Atomic             Coordinates (Angstroms)
 Number     Number       Type             X           Y           Z
 ---------------------------------------------------------------------
      1          6           0        0.155552   -3.633191   -1.420191
      2          7           0        0.100653   -2.284589   -0.877383
      3          6           0        1.207704   -1.475825   -1.002071
      4          8           0        2.284100   -1.904956   -1.410372
      5          7           0        1.038463   -0.169882   -0.623284
      6          6           0        2.135169    0.765175   -0.839010
      7          9           0        1.578416    1.972577   -1.181170
      8          9           0        2.819273    0.424862   -1.964060
      9          6           0        3.106690    1.007595    0.352669
     10          9           0        2.367854    0.981748    1.518164
     11          8           0        3.678129    2.325929    0.385821
     12          6           0        4.681481    2.552814   -0.569047
     13          9           0        5.780617    1.854319   -0.248760
     14          9           0        4.986393    3.862508   -0.571610
     15          9           0        4.261247    2.204351   -1.790790
     16          6           0        4.100329   -0.147979    0.459059
     17          9           0        4.797382   -0.352617   -0.674766
     18          9           0        5.001792    0.086327    1.445798
     19          9           0        3.477588   -1.303594    0.786605
     20          6           0       -0.004831    0.235464    0.174970
     21          8           0       -0.075827    1.382115    0.607145
     22          7           0       -0.964806   -0.703352    0.466654
     23          6           0       -2.085975   -0.293062    1.301647
     24          9           0       -1.553209    0.338782    2.400434
     25          9           0       -2.688383   -1.384760    1.861952
     26          6           0       -3.179147    0.632072    0.698980
     27          9           0       -2.595841    1.756109    0.189208
     28          8           0       -4.012679    1.072706    1.785317
     29          6           0       -5.134641    1.803461    1.370093
     30          9           0       -6.085761    0.947191    0.960640
     31          9           0       -4.829064    2.658999    0.382883
     32          9           0       -5.607553    2.499436    2.420264
     33          6           0       -3.878963   -0.123749   -0.431901
     34          9           0       -4.804217    0.645181   -1.053834
     35          9           0       -3.001980   -0.488527   -1.398095
     36          9           0       -4.515169   -1.229083    0.001546
     37          6           0       -1.021514   -1.918930   -0.166200
     38          8           0       -2.017050   -2.638017   -0.119116
     39          1           0        0.396836   -4.321592   -0.604078
     40          1           0       -0.814756   -3.914204   -1.841121
     41          1           0        0.915699   -3.721815   -2.201416
 ---------------------------------------------------------------------

 SCF Done:  E(UCAM-B3LYP) =  -2795.47199869     A.U. after   44 cycles

 Alpha  occ. eigenvalues --  -24.89567 -24.88947 -24.87675 -24.87416 -24.87359
 Alpha  occ. eigenvalues --  -24.87075 -24.86931 -24.86751 -24.86411 -24.86361
 Alpha  occ. eigenvalues --  -24.86271 -24.86210 -24.85881 -24.85657 -24.85496
 Alpha  occ. eigenvalues --  -24.85474 -24.85424 -24.85236 -19.44683 -19.36144
 Alpha  occ. eigenvalues --  -19.35969 -19.34715 -19.33554 -14.63042 -14.62132
 Alpha  occ. eigenvalues --  -14.60725 -10.61937 -10.61905 -10.59761 -10.59583
 Alpha  occ. eigenvalues --  -10.58387 -10.58372 -10.58109 -10.54938 -10.54563
 Alpha  occ. eigenvalues --  -10.53545 -10.52698 -10.38285  -1.46715  -1.45842
 Alpha  occ. eigenvalues --   -1.45028  -1.44695  -1.44625  -1.43227  -1.39706
 Alpha  occ. eigenvalues --   -1.38928  -1.37807  -1.36936  -1.36355  -1.36344
 Alpha  occ. eigenvalues --   -1.36152  -1.35904  -1.35686  -1.35584  -1.35199
 Alpha  occ. eigenvalues --   -1.35018  -1.34846  -1.30350  -1.27127  -1.23584
 Alpha  occ. eigenvalues --   -1.23305  -1.20952  -1.17342  -1.16440  -0.98930
 Alpha  occ. eigenvalues --   -0.97203  -0.93399  -0.92096  -0.91831  -0.86905
 Alpha  occ. eigenvalues --   -0.85497  -0.85166  -0.84623  -0.83769  -0.80492
 Alpha  occ. eigenvalues --   -0.79654  -0.77773  -0.76741  -0.76000  -0.75809
 Alpha  occ. eigenvalues --   -0.74931  -0.74255  -0.73708  -0.72904  -0.72509
 Alpha  occ. eigenvalues --   -0.72243  -0.72117  -0.71691  -0.71462  -0.71167
 Alpha  occ. eigenvalues --   -0.70977  -0.70871  -0.70036  -0.69375  -0.68882
 Alpha  occ. eigenvalues --   -0.67525  -0.65715  -0.65174  -0.64409  -0.63851
 Alpha  occ. eigenvalues --   -0.63480  -0.63006  -0.61787  -0.61653  -0.60847
 Alpha  occ. eigenvalues --   -0.60389  -0.60328  -0.60189  -0.60076  -0.59634
 Alpha  occ. eigenvalues --   -0.59083  -0.58957  -0.58837  -0.58550  -0.58377
 Alpha  occ. eigenvalues --   -0.57913  -0.57778  -0.57638  -0.57106  -0.56853
 Alpha  occ. eigenvalues --   -0.56636  -0.56392  -0.55684  -0.55600  -0.55338
 Alpha  occ. eigenvalues --   -0.55161  -0.54970  -0.54786  -0.54696  -0.54160
 Alpha  occ. eigenvalues --   -0.54084  -0.53957  -0.53402  -0.53301  -0.53162
 Alpha  occ. eigenvalues --   -0.52860  -0.52376  -0.51906  -0.51865  -0.51550
 Alpha  occ. eigenvalues --   -0.51489  -0.50721  -0.49410  -0.48893  -0.48085
 Alpha  occ. eigenvalues --   -0.47729  -0.46278  -0.45961  -0.45208
 Alpha virt. eigenvalues --   -0.10468  -0.07444   0.00077   0.00546   0.01698
 Alpha virt. eigenvalues --    0.02208   0.04445   0.07530   0.09622   0.10122
 Alpha virt. eigenvalues --    0.10906   0.12157   0.13619   0.14507   0.14979

  Beta  occ. eigenvalues --  -24.89498 -24.88937 -24.87666 -24.87404 -24.87346
  Beta  occ. eigenvalues --  -24.87064 -24.86926 -24.86748 -24.86410 -24.86350
  Beta  occ. eigenvalues --  -24.86271 -24.86209 -24.85881 -24.85657 -24.85496
  Beta  occ. eigenvalues --  -24.85474 -24.85424 -24.85236 -19.43000 -19.36144
  Beta  occ. eigenvalues --  -19.35969 -19.34213 -19.33224 -14.62971 -14.61896
  Beta  occ. eigenvalues --  -14.60712 -10.61937 -10.61905 -10.59761 -10.59587
  Beta  occ. eigenvalues --  -10.58523 -10.58387 -10.58110 -10.54969 -10.54637
  Beta  occ. eigenvalues --  -10.53546 -10.52698 -10.38257  -1.46697  -1.45839
  Beta  occ. eigenvalues --   -1.45026  -1.44689  -1.44527  -1.43207  -1.39689
  Beta  occ. eigenvalues --   -1.38923  -1.37767  -1.36775  -1.36347  -1.36320
  Beta  occ. eigenvalues --   -1.36135  -1.35686  -1.35562  -1.35198  -1.35022
  Beta  occ. eigenvalues --   -1.34843  -1.33822  -1.29239  -1.26510  -1.23583
  Beta  occ. eigenvalues --   -1.23303  -1.19860  -1.16889  -1.15941  -0.98900
  Beta  occ. eigenvalues --   -0.97144  -0.93124  -0.91736  -0.91470  -0.86759
  Beta  occ. eigenvalues --   -0.85355  -0.84768  -0.84203  -0.83419  -0.80429
  Beta  occ. eigenvalues --   -0.79599  -0.77717  -0.76707  -0.75975  -0.75767
  Beta  occ. eigenvalues --   -0.74884  -0.74228  -0.73620  -0.72735  -0.72460
  Beta  occ. eigenvalues --   -0.72219  -0.71994  -0.71534  -0.71442  -0.71114
  Beta  occ. eigenvalues --   -0.70842  -0.69917  -0.69612  -0.69316  -0.68723
  Beta  occ. eigenvalues --   -0.67507  -0.65298  -0.64505  -0.64020  -0.63451
  Beta  occ. eigenvalues --   -0.62959  -0.62027  -0.61624  -0.60963  -0.60600
  Beta  occ. eigenvalues --   -0.60288  -0.60154  -0.60134  -0.59727  -0.59559
  Beta  occ. eigenvalues --   -0.58949  -0.58900  -0.58782  -0.58475  -0.58150
  Beta  occ. eigenvalues --   -0.57873  -0.57614  -0.57436  -0.56955  -0.56476
  Beta  occ. eigenvalues --   -0.56165  -0.55869  -0.55610  -0.55128  -0.55103
  Beta  occ. eigenvalues --   -0.54923  -0.54722  -0.54658  -0.54145  -0.54039
  Beta  occ. eigenvalues --   -0.53916  -0.53382  -0.53289  -0.53113  -0.52801
  Beta  occ. eigenvalues --   -0.52340  -0.51885  -0.51854  -0.51484  -0.51265
  Beta  occ. eigenvalues --   -0.50629  -0.49228  -0.48062  -0.47527  -0.45815
  Beta  occ. eigenvalues --   -0.45219  -0.44661  -0.43947
  Beta virt. eigenvalues --   -0.31619  -0.10047  -0.07186   0.00161   0.00600
  Beta virt. eigenvalues --    0.01740   0.02216   0.04483   0.07651   0.09704
  Beta virt. eigenvalues --    0.10278   0.11104   0.12210   0.13753   0.14563

 Mulliken charges and spin densities:
               1          2
     1  C   -0.227075   0.011640
     2  N   -0.562395   0.109652
     3  C    0.897176  -0.044859
     4  O   -0.381471   0.191303
     5  N   -0.642178   0.007031
     6  C    0.755722  -0.001517
     7  F   -0.254122   0.002534
     8  F   -0.233916   0.003054
     9  C    0.443918   0.000213
    10  F   -0.268219   0.000529
    11  O   -0.486092   0.000080
    12  C    0.981919  -0.000011
    13  F   -0.235837   0.000008
    14  F   -0.231326   0.000001
    15  F   -0.233780  -0.000004
    16  C    0.821092  -0.000508
    17  F   -0.238061   0.000157
    18  F   -0.248973   0.000158
    19  F   -0.247713   0.002389
    20  C    0.917807  -0.021639
    21  O   -0.395480   0.123231
    22  N   -0.648575   0.030132
    23  C    0.733198  -0.004326
    24  F   -0.241036   0.003508
    25  F   -0.228262   0.016949
    26  C    0.454338   0.000504
    27  F   -0.244308   0.001061
    28  O   -0.503489   0.000023
    29  C    1.003792  -0.000033
    30  F   -0.241815   0.000013
    31  F   -0.239225   0.000008
    32  F   -0.231675  -0.000008
    33  C    0.810230  -0.001035
    34  F   -0.239795   0.000234
    35  F   -0.252811   0.002560
    36  F   -0.228120   0.002048
    37  C    0.955235  -0.081615
    38  O   -0.234933   0.631937
    39  H    0.217799   0.007842
    40  H    0.210652   0.008613
    41  H    0.217803  -0.001858
 Sum of Mulliken charges =   1.00000   1.00000

 Dipole moment (field-independent basis, Debye):
    X=             -1.9147    Y=             -9.5988    Z=             -3.1903  Tot=             10.2947
 Quadrupole moment (field-independent basis, Debye-Ang):
   XX=           -184.9018   YY=           -168.7302   ZZ=           -192.2683
   XY=              3.5341   XZ=             -0.5280   YZ=              7.3147

 Normal termination of Gaussian 09 at Sun Mar  3 17:23:56 2024.
