 Gaussian 09, Revision D.01,
 Gaussian 09:  ES64L-G09RevD.01 24-Apr-2013

 ----------------------------------------------------------------------
 #p CAM-B3LYP/6-31G(d,p) opt SCRF=(PCM,Solvent=Generic,Read) NoSymm out
 =wfn
 ----------------------------------------------------------------------

 -----------------
 Title DIPEDA1_neu
 -----------------
 Symbolic Z-matrix:
 Charge =  0 Multiplicity = 1

 SCF Done:  E(RCAM-B3LYP) =  -2029.83741155     A.U. after   13 cycles
 SCF Done:  E(RCAM-B3LYP) =  -2029.85830214     A.U. after   12 cycles
 SCF Done:  E(RCAM-B3LYP) =  -2029.86482987     A.U. after   12 cycles
 SCF Done:  E(RCAM-B3LYP) =  -2029.86634066     A.U. after   11 cycles
 SCF Done:  E(RCAM-B3LYP) =  -2029.86647061     A.U. after   12 cycles
 SCF Done:  E(RCAM-B3LYP) =  -2029.86745051     A.U. after   12 cycles
 SCF Done:  E(RCAM-B3LYP) =  -2029.86795164     A.U. after   12 cycles
 SCF Done:  E(RCAM-B3LYP) =  -2029.86812042     A.U. after   12 cycles
 SCF Done:  E(RCAM-B3LYP) =  -2029.86848142     A.U. after   11 cycles
 SCF Done:  E(RCAM-B3LYP) =  -2029.86876536     A.U. after   11 cycles
 SCF Done:  E(RCAM-B3LYP) =  -2029.87269255     A.U. after   11 cycles
 SCF Done:  E(RCAM-B3LYP) =  -2029.87270460     A.U. after    9 cycles
 SCF Done:  E(RCAM-B3LYP) =  -2029.87271039     A.U. after    9 cycles
 SCF Done:  E(RCAM-B3LYP) =  -2029.87271374     A.U. after    9 cycles
 SCF Done:  E(RCAM-B3LYP) =  -2029.87271591     A.U. after    9 cycles
 SCF Done:  E(RCAM-B3LYP) =  -2029.87271741     A.U. after    8 cycles
 SCF Done:  E(RCAM-B3LYP) =  -2029.87271812     A.U. after    9 cycles
 SCF Done:  E(RCAM-B3LYP) =  -2029.87271840     A.U. after    7 cycles
 SCF Done:  E(RCAM-B3LYP) =  -2029.87271854     A.U. after    6 cycles
 SCF Done:  E(RCAM-B3LYP) =  -2029.87271858     A.U. after    6 cycles
 Optimization completed.
    -- Stationary point found.

                          Input orientation:
 ---------------------------------------------------------------------
 Center     Atomic      Atomic             Coordinates (Angstroms)
 Number     Number       Type             X           Y           Z
 ---------------------------------------------------------------------
      1          9           0        0.321266   -0.414758    2.475545
      2          6           0        1.491620    0.079176    2.080524
      3          9           0        2.058022    0.720841    3.111269
      4          6           0        2.446047   -1.003834    1.542090
      5          9           0        3.189848   -1.516563    2.530312
      6          9           0        1.713609   -1.976696    0.979021
      7          6           0        3.250173   -0.266004    0.436695
      8          9           0        3.216573   -0.985960   -0.720814
      9          6           0        4.724087   -0.025081    0.785967
     10          9           0        4.798083    0.565470    2.000613
     11          6           0        5.554036   -1.321882    0.811823
     12          8           0        6.842673   -1.026625    0.923226
     13          8           0        5.081028   -2.423920    0.752664
     14          9           0        5.255943    0.801637   -0.136231
     15          6           0        2.437871    1.055286    0.244517
     16          9           0        3.147520    2.121869    0.700282
     17          6           0        2.033398    1.373218   -1.210907
     18          9           0        1.269968    2.498825   -1.138575
     19          6           0        1.249455    0.296086   -2.004311
     20          7           0        0.084955   -0.047139   -1.441913
     21          6           0       -0.828304   -1.014734   -2.012907
     22          6           0       -2.268781   -0.575323   -1.699694
     23          7           0       -2.395700    0.019434   -0.359224
     24          6           0       -2.937444    1.401996   -0.430137
     25          6           0       -2.351409    2.355070    0.615353
     26          6           0       -4.465598    1.480322   -0.507761
     27          6           0       -3.001028   -0.917282    0.612970
     28          6           0       -2.190724   -2.215243    0.685000
     29          6           0       -3.097158   -0.348066    2.027646
     30          8           0        1.694950   -0.122927   -3.055256
     31          9           0        3.166930    1.661613   -1.867399
     32          8           0        1.278576    0.933967    1.020070
     33          1           0        7.341801   -1.860172    0.952780
     34          1           0       -0.248751    0.371034   -0.579182
     35          1           0       -0.662062   -1.064256   -3.090513
     36          1           0       -0.614394   -2.005165   -1.600163
     37          1           0       -2.943575   -1.429021   -1.836146
     38          1           0       -2.563071    0.165118   -2.446406
     39          1           0       -2.558290    1.783716   -1.382217
     40          1           0       -2.608275    3.382890    0.341973
     41          1           0       -1.261226    2.278033    0.635482
     42          1           0       -2.723684    2.184718    1.624667
     43          1           0       -4.778726    2.508438   -0.708827
     44          1           0       -4.851352    0.850548   -1.315087
     45          1           0       -4.946780    1.167077    0.421720
     46          1           0       -4.022046   -1.180282    0.284204
     47          1           0       -2.629331   -2.877322    1.435718
     48          1           0       -1.157546   -2.006431    0.977412
     49          1           0       -2.179911   -2.764728   -0.257337
     50          1           0       -3.792262    0.486535    2.108683
     51          1           0       -2.115909   -0.021867    2.379165
     52          1           0       -3.455094   -1.131637    2.700348
 ---------------------------------------------------------------------

 Alpha  occ. eigenvalues --  -24.83823 -24.83018 -24.82986 -24.82804 -24.82264
 Alpha  occ. eigenvalues --  -24.82126 -24.81860 -24.81317 -24.80458 -24.80375
 Alpha  occ. eigenvalues --  -19.32112 -19.30563 -19.25344 -19.19820 -14.43762
 Alpha  occ. eigenvalues --  -14.40283 -10.52436 -10.48276 -10.47937 -10.46161
 Alpha  occ. eigenvalues --  -10.45632 -10.43827 -10.42016 -10.37882 -10.29386
 Alpha  occ. eigenvalues --  -10.29195 -10.29062 -10.28914 -10.24822 -10.24727
 Alpha  occ. eigenvalues --  -10.24608 -10.24342  -1.41139  -1.38536  -1.37976
 Alpha  occ. eigenvalues --   -1.36713  -1.34392  -1.33898  -1.33359  -1.32137
 Alpha  occ. eigenvalues --   -1.31540  -1.29908  -1.22923  -1.22221  -1.14030
 Alpha  occ. eigenvalues --   -1.12937  -1.02602  -0.99845  -0.94582  -0.90369
 Alpha  occ. eigenvalues --   -0.87177  -0.86672  -0.85835  -0.82308  -0.79966
 Alpha  occ. eigenvalues --   -0.78143  -0.76779  -0.76382  -0.75647  -0.73386
 Alpha  occ. eigenvalues --   -0.72241  -0.70586  -0.70226  -0.68830  -0.68564
 Alpha  occ. eigenvalues --   -0.68199  -0.67606  -0.66865  -0.66476  -0.65840
 Alpha  occ. eigenvalues --   -0.65056  -0.64235  -0.63358  -0.62860  -0.61825
 Alpha  occ. eigenvalues --   -0.61388  -0.58698  -0.57728  -0.56661  -0.56470
 Alpha  occ. eigenvalues --   -0.56370  -0.55504  -0.55292  -0.54864  -0.54769
 Alpha  occ. eigenvalues --   -0.54497  -0.54054  -0.53585  -0.53172  -0.52915
 Alpha  occ. eigenvalues --   -0.52521  -0.52303  -0.51960  -0.51525  -0.51115
 Alpha  occ. eigenvalues --   -0.50983  -0.50542  -0.50223  -0.49741  -0.49663
 Alpha  occ. eigenvalues --   -0.49125  -0.48563  -0.48478  -0.48038  -0.47616
 Alpha  occ. eigenvalues --   -0.47169  -0.46601  -0.46089  -0.45996  -0.45168
 Alpha  occ. eigenvalues --   -0.44689  -0.43984  -0.43886  -0.43155  -0.42829
 Alpha  occ. eigenvalues --   -0.41805  -0.41598  -0.41208  -0.40481  -0.40020
 Alpha  occ. eigenvalues --   -0.38907  -0.37891  -0.37639  -0.33252  -0.31986
 Alpha  occ. eigenvalues --   -0.27912
 Alpha virt. eigenvalues --    0.01400   0.04764   0.06202   0.10089   0.10770
 Alpha virt. eigenvalues --    0.11986   0.12586   0.14391   0.14761   0.15059
 Alpha virt. eigenvalues --    0.16254   0.16799   0.17469   0.18286   0.18806

 Mulliken charges:
               1
     1  F   -0.234202
     2  C    0.756933
     3  F   -0.245857
     4  C    0.544486
     5  F   -0.252940
     6  F   -0.252284
     7  C    0.132545
     8  F   -0.280425
     9  C    0.591002
    10  F   -0.270706
    11  C    0.574812
    12  O   -0.472708
    13  O   -0.434101
    14  F   -0.266374
    15  C    0.503895
    16  F   -0.274912
    17  C    0.544997
    18  F   -0.281663
    19  C    0.535126
    20  N   -0.543863
    21  C   -0.034992
    22  C   -0.066449
    23  N   -0.464347
    24  C    0.062398
    25  C   -0.312454
    26  C   -0.319359
    27  C    0.092090
    28  C   -0.326478
    29  C   -0.327912
    30  O   -0.521162
    31  F   -0.262967
    32  O   -0.501607
    33  H    0.357849
    34  H    0.303456
    35  H    0.140195
    36  H    0.124173
    37  H    0.106431
    38  H    0.115514
    39  H    0.103691
    40  H    0.103379
    41  H    0.105283
    42  H    0.105855
    43  H    0.108799
    44  H    0.106108
    45  H    0.109202
    46  H    0.077864
    47  H    0.106723
    48  H    0.106093
    49  H    0.104903
    50  H    0.107444
    51  H    0.111861
    52  H    0.104653
 Sum of Mulliken charges =   0.00000

 Dipole moment (field-independent basis, Debye):
    X=             -2.3601    Y=             -1.5992    Z=              2.6173  Tot=              3.8702
 Quadrupole moment (field-independent basis, Debye-Ang):
   XX=           -151.2550   YY=           -182.7685   ZZ=           -190.0532
   XY=            -10.9642   XZ=             13.2622   YZ=             -1.5005

 Normal termination of Gaussian 09 at Wed Feb  5 13:53:26 2025.
