 Gaussian 09, Revision D.01,
 Gaussian 09:  ES64L-G09RevD.01 24-Apr-2013

 ----------------------------------------------------------------------
 #p CAM-B3LYP/6-31G(d,p) SCRF=(PCM,Solvent=Generic,Read) NoSymm out=wfn
 ----------------------------------------------------------------------

 -------------------
 Title A603415620_p1
 -------------------
 Symbolic Z-matrix:
 Charge =  1 Multiplicity = 2

                          Input orientation:
 ---------------------------------------------------------------------
 Center     Atomic      Atomic             Coordinates (Angstroms)
 Number     Number       Type             X           Y           Z
 ---------------------------------------------------------------------
      1          6           0       -1.752432    5.508954   -1.457433
      2          6           0       -1.121097    4.279105   -1.937615
      3          6           0       -0.603199    3.269845   -2.333433
      4          6           0        0.030968    2.030012   -2.810467
      5          7           0        0.138190    1.069648   -1.719894
      6          6           0        1.249274    1.122589   -0.907485
      7          8           0        2.248280    1.769316   -1.212355
      8          7           0        1.172325    0.388909    0.249467
      9          6           0        2.289349    0.489235    1.182359
     10          9           0        1.845761    0.187106    2.436741
     11          9           0        2.650456    1.799834    1.286661
     12          6           0        3.518226   -0.388039    0.831826
     13          9           0        4.042660    0.027526   -0.358066
     14          8           0        3.089341   -1.735919    0.601597
     15          6           0        4.151964   -2.649250    0.521252
     16          9           0        5.143734   -2.169011   -0.243916
     17          9           0        3.692576   -3.787443   -0.030201
     18          9           0        4.603588   -2.917001    1.756117
     19          6           0        4.527677   -0.148288    1.963551
     20          9           0        4.088991   -0.641641    3.143108
     21          9           0        5.712856   -0.753693    1.707257
     22          9           0        4.808283    1.159327    2.151303
     23          6           0        0.309162   -0.670404    0.377817
     24          8           0        0.391247   -1.462825    1.312673
     25          7           0       -0.662529   -0.800294   -0.583607
     26          6           0       -1.654152   -1.860955   -0.460971
     27          9           0       -1.911958   -2.313638   -1.733901
     28          9           0       -1.100032   -2.962945    0.128252
     29          6           0       -3.014745   -1.553688    0.224455
     30          9           0       -3.608300   -0.489484   -0.389470
     31          8           0       -3.875942   -2.681508   -0.012333
     32          6           0       -5.095689   -2.608849    0.675009
     33          9           0       -4.903471   -2.997317    1.946798
     34          9           0       -5.966955   -3.454819    0.095166
     35          9           0       -5.607004   -1.368902    0.644198
     36          6           0       -2.744827   -1.201387    1.688298
     37          9           0       -1.920897   -0.131372    1.794860
     38          9           0       -3.879162   -0.854225    2.340895
     39          9           0       -2.195849   -2.224743    2.371253
     40          6           0       -0.880956    0.161058   -1.540777
     41          8           0       -1.914546    0.203600   -2.202755
     42          1           0       -2.402881    5.937811   -2.225636
     43          1           0       -0.997852    6.256515   -1.194922
     44          1           0       -2.359793    5.312664   -0.568748
     45          1           0       -0.555858    1.601673   -3.630749
     46          1           0        1.025219    2.252914   -3.213014
 ---------------------------------------------------------------------

 SCF Done:  E(UCAM-B3LYP) =  -2910.91343798     A.U. after   18 cycles

 Alpha  occ. eigenvalues --  -24.86337 -24.85486 -24.85190 -24.85110 -24.85103
 Alpha  occ. eigenvalues --  -24.85103 -24.84998 -24.84923 -24.84900 -24.84857
 Alpha  occ. eigenvalues --  -24.84822 -24.84816 -24.84802 -24.84756 -24.84530
 Alpha  occ. eigenvalues --  -24.84526 -24.84235 -24.84200 -19.34862 -19.34576
 Alpha  occ. eigenvalues --  -19.28461 -19.28342 -19.26862 -14.56491 -14.56307
 Alpha  occ. eigenvalues --  -14.56292 -10.61098 -10.60942 -10.57607 -10.57033
 Alpha  occ. eigenvalues --  -10.55949 -10.55830 -10.51163 -10.50999 -10.50174
 Alpha  occ. eigenvalues --  -10.50171 -10.49733 -10.46311 -10.45498 -10.43493
 Alpha  occ. eigenvalues --  -10.37274  -1.44804  -1.44713  -1.43769  -1.43322
 Alpha  occ. eigenvalues --   -1.41418  -1.40735  -1.37735  -1.37617  -1.35367
 Alpha  occ. eigenvalues --   -1.34998  -1.34872  -1.34801  -1.34644  -1.34528
 Alpha  occ. eigenvalues --   -1.34057  -1.33693  -1.33604  -1.33156  -1.27243
 Alpha  occ. eigenvalues --   -1.22458  -1.22174  -1.21945  -1.21487  -1.13786
 Alpha  occ. eigenvalues --   -1.12174  -1.12000  -1.04307  -0.96544  -0.95374
 Alpha  occ. eigenvalues --   -0.94544  -0.90443  -0.88189  -0.87287  -0.84571
 Alpha  occ. eigenvalues --   -0.83921  -0.82362  -0.81507  -0.79019  -0.78914
 Alpha  occ. eigenvalues --   -0.77766  -0.75816  -0.74705  -0.74226  -0.73835
 Alpha  occ. eigenvalues --   -0.72788  -0.72270  -0.71865  -0.71228  -0.71041
 Alpha  occ. eigenvalues --   -0.70520  -0.70209  -0.69915  -0.69610  -0.69186
 Alpha  occ. eigenvalues --   -0.68691  -0.68250  -0.67938  -0.67376  -0.66405
 Alpha  occ. eigenvalues --   -0.65799  -0.64661  -0.63471  -0.62969  -0.62098
 Alpha  occ. eigenvalues --   -0.61678  -0.60336  -0.59510  -0.59459  -0.59154
 Alpha  occ. eigenvalues --   -0.59148  -0.58802  -0.58762  -0.58287  -0.58218
 Alpha  occ. eigenvalues --   -0.57941  -0.57721  -0.57575  -0.57410  -0.57361
 Alpha  occ. eigenvalues --   -0.57045  -0.56767  -0.56595  -0.56271  -0.56048
 Alpha  occ. eigenvalues --   -0.55665  -0.55361  -0.55021  -0.54780  -0.54483
 Alpha  occ. eigenvalues --   -0.54230  -0.53880  -0.53735  -0.53620  -0.53094
 Alpha  occ. eigenvalues --   -0.52863  -0.52592  -0.52429  -0.52197  -0.51963
 Alpha  occ. eigenvalues --   -0.51779  -0.51439  -0.51274  -0.50778  -0.50655
 Alpha  occ. eigenvalues --   -0.50583  -0.50446  -0.49405  -0.48375  -0.47913
 Alpha  occ. eigenvalues --   -0.47736  -0.46498  -0.46281  -0.44275  -0.43138
 Alpha  occ. eigenvalues --   -0.42837  -0.42232  -0.41379  -0.39442
 Alpha virt. eigenvalues --   -0.04751  -0.04089  -0.03431  -0.02248   0.03266
 Alpha virt. eigenvalues --    0.03885   0.04673   0.05808   0.08152   0.09854
 Alpha virt. eigenvalues --    0.10537   0.11112   0.12152   0.12990   0.14372

  Beta  occ. eigenvalues --  -24.86337 -24.85486 -24.85190 -24.85110 -24.85103
  Beta  occ. eigenvalues --  -24.85103 -24.84998 -24.84923 -24.84900 -24.84857
  Beta  occ. eigenvalues --  -24.84822 -24.84816 -24.84802 -24.84756 -24.84530
  Beta  occ. eigenvalues --  -24.84526 -24.84235 -24.84200 -19.34862 -19.34576
  Beta  occ. eigenvalues --  -19.28453 -19.28331 -19.26862 -14.56490 -14.56307
  Beta  occ. eigenvalues --  -14.56297 -10.61098 -10.60942 -10.57607 -10.57033
  Beta  occ. eigenvalues --  -10.55949 -10.55830 -10.51163 -10.50999 -10.50173
  Beta  occ. eigenvalues --  -10.50171 -10.49733 -10.45645 -10.44801 -10.43491
  Beta  occ. eigenvalues --  -10.37265  -1.44804  -1.44713  -1.43769  -1.43322
  Beta  occ. eigenvalues --   -1.41418  -1.40735  -1.37735  -1.37617  -1.35367
  Beta  occ. eigenvalues --   -1.34998  -1.34872  -1.34801  -1.34644  -1.34528
  Beta  occ. eigenvalues --   -1.34057  -1.33693  -1.33604  -1.33156  -1.27237
  Beta  occ. eigenvalues --   -1.22456  -1.22166  -1.21940  -1.21479  -1.13769
  Beta  occ. eigenvalues --   -1.12099  -1.11995  -1.01205  -0.96396  -0.95373
  Beta  occ. eigenvalues --   -0.94227  -0.89451  -0.88083  -0.87280  -0.84569
  Beta  occ. eigenvalues --   -0.83913  -0.82248  -0.81499  -0.78972  -0.78890
  Beta  occ. eigenvalues --   -0.77762  -0.75800  -0.74704  -0.74218  -0.73828
  Beta  occ. eigenvalues --   -0.72756  -0.72265  -0.71854  -0.71220  -0.71006
  Beta  occ. eigenvalues --   -0.70508  -0.70124  -0.69797  -0.69425  -0.69183
  Beta  occ. eigenvalues --   -0.68591  -0.68243  -0.67916  -0.67324  -0.66378
  Beta  occ. eigenvalues --   -0.65703  -0.64226  -0.63097  -0.62099  -0.61681
  Beta  occ. eigenvalues --   -0.60386  -0.60291  -0.59436  -0.59141  -0.58860
  Beta  occ. eigenvalues --   -0.58801  -0.58734  -0.58288  -0.58208  -0.57966
  Beta  occ. eigenvalues --   -0.57747  -0.57612  -0.57549  -0.57393  -0.57273
  Beta  occ. eigenvalues --   -0.56805  -0.56731  -0.56593  -0.56129  -0.56022
  Beta  occ. eigenvalues --   -0.55656  -0.55355  -0.55018  -0.54734  -0.54475
  Beta  occ. eigenvalues --   -0.54226  -0.53868  -0.53733  -0.53617  -0.53086
  Beta  occ. eigenvalues --   -0.52859  -0.52588  -0.52427  -0.52196  -0.51962
  Beta  occ. eigenvalues --   -0.51777  -0.51439  -0.51271  -0.50776  -0.50653
  Beta  occ. eigenvalues --   -0.50572  -0.50444  -0.47957  -0.47762  -0.47412
  Beta  occ. eigenvalues --   -0.46499  -0.46280  -0.44236  -0.43101  -0.42822
  Beta  occ. eigenvalues --   -0.42157  -0.41373  -0.39431
  Beta virt. eigenvalues --   -0.26605  -0.03940  -0.03209  -0.02084   0.00700
  Beta virt. eigenvalues --    0.03267   0.03924   0.04714   0.05827   0.08270
  Beta virt. eigenvalues --    0.10290   0.10714   0.11216   0.12322   0.13264

 Mulliken charges and spin densities:
               1          2
     1  C   -0.433146  -0.000031
     2  C    0.247681   0.411336
     3  C    0.295818   0.455383
     4  C   -0.210405  -0.007768
     5  N   -0.584306  -0.000119
     6  C    0.846620  -0.000053
     7  O   -0.476168   0.002365
     8  N   -0.656982   0.000007
     9  C    0.761363   0.000008
    10  F   -0.245996   0.000015
    11  F   -0.254780   0.000042
    12  C    0.438338  -0.000010
    13  F   -0.254791   0.000000
    14  O   -0.509761   0.000000
    15  C    0.999732   0.000000
    16  F   -0.241825   0.000000
    17  F   -0.237067   0.000000
    18  F   -0.240003   0.000000
    19  C    0.817322   0.000000
    20  F   -0.243226   0.000000
    21  F   -0.256229   0.000000
    22  F   -0.243416   0.000000
    23  C    0.871960  -0.000011
    24  O   -0.476888  -0.000051
    25  N   -0.652099   0.000185
    26  C    0.749954  -0.000011
    27  F   -0.263188   0.000004
    28  F   -0.239395   0.000002
    29  C    0.437384   0.000019
    30  F   -0.256009   0.000044
    31  O   -0.509247   0.000004
    32  C    0.999121   0.000001
    33  F   -0.243435   0.000000
    34  F   -0.236253   0.000001
    35  F   -0.243653   0.000001
    36  C    0.816799   0.000001
    37  F   -0.253329   0.000002
    38  F   -0.250469   0.000000
    39  F   -0.230416   0.000000
    40  C    0.859848  -0.000849
    41  O   -0.480790   0.003590
    42  H    0.241037   0.016461
    43  H    0.256258   0.050943
    44  H    0.234556   0.007784
    45  H    0.273291   0.029365
    46  H    0.276190   0.031343
 Sum of Mulliken charges =   1.00000   1.00000

 Dipole moment (field-independent basis, Debye):
    X=             -4.4399    Y=             19.7510    Z=            -10.7946  Tot=             22.9421
 Quadrupole moment (field-independent basis, Debye-Ang):
   XX=           -212.0792   YY=           -126.5990   ZZ=           -192.1671
   XY=            -28.9496   XZ=              2.2062   YZ=            -34.2622

 Normal termination of Gaussian 09 at Sun Mar  3 18:22:40 2024.
