 Gaussian 09, Revision D.01,
 Gaussian 09:  ES64L-G09RevD.01 24-Apr-2013

 ----------------------------------------------------------------------
 #p CAM-B3LYP/6-31G(d,p) SCRF=(PCM,Solvent=Generic,Read) NoSymm out=wfn
 ----------------------------------------------------------------------

 ------------------
 Title A603415620_0
 ------------------
 Symbolic Z-matrix:
 Charge =  0 Multiplicity = 1

                          Input orientation:
 ---------------------------------------------------------------------
 Center     Atomic      Atomic             Coordinates (Angstroms)
 Number     Number       Type             X           Y           Z
 ---------------------------------------------------------------------
      1          6           0       -1.752432    5.508954   -1.457433
      2          6           0       -1.121097    4.279105   -1.937615
      3          6           0       -0.603199    3.269845   -2.333433
      4          6           0        0.030968    2.030012   -2.810467
      5          7           0        0.138190    1.069648   -1.719894
      6          6           0        1.249274    1.122589   -0.907485
      7          8           0        2.248280    1.769316   -1.212355
      8          7           0        1.172325    0.388909    0.249467
      9          6           0        2.289349    0.489235    1.182359
     10          9           0        1.845761    0.187106    2.436741
     11          9           0        2.650456    1.799834    1.286661
     12          6           0        3.518226   -0.388039    0.831826
     13          9           0        4.042660    0.027526   -0.358066
     14          8           0        3.089341   -1.735919    0.601597
     15          6           0        4.151964   -2.649250    0.521252
     16          9           0        5.143734   -2.169011   -0.243916
     17          9           0        3.692576   -3.787443   -0.030201
     18          9           0        4.603588   -2.917001    1.756117
     19          6           0        4.527677   -0.148288    1.963551
     20          9           0        4.088991   -0.641641    3.143108
     21          9           0        5.712856   -0.753693    1.707257
     22          9           0        4.808283    1.159327    2.151303
     23          6           0        0.309162   -0.670404    0.377817
     24          8           0        0.391247   -1.462825    1.312673
     25          7           0       -0.662529   -0.800294   -0.583607
     26          6           0       -1.654152   -1.860955   -0.460971
     27          9           0       -1.911958   -2.313638   -1.733901
     28          9           0       -1.100032   -2.962945    0.128252
     29          6           0       -3.014745   -1.553688    0.224455
     30          9           0       -3.608300   -0.489484   -0.389470
     31          8           0       -3.875942   -2.681508   -0.012333
     32          6           0       -5.095689   -2.608849    0.675009
     33          9           0       -4.903471   -2.997317    1.946798
     34          9           0       -5.966955   -3.454819    0.095166
     35          9           0       -5.607004   -1.368902    0.644198
     36          6           0       -2.744827   -1.201387    1.688298
     37          9           0       -1.920897   -0.131372    1.794860
     38          9           0       -3.879162   -0.854225    2.340895
     39          9           0       -2.195849   -2.224743    2.371253
     40          6           0       -0.880956    0.161058   -1.540777
     41          8           0       -1.914546    0.203600   -2.202755
     42          1           0       -2.402881    5.937811   -2.225636
     43          1           0       -0.997852    6.256515   -1.194922
     44          1           0       -2.359793    5.312664   -0.568748
     45          1           0       -0.555858    1.601673   -3.630749
     46          1           0        1.025219    2.252914   -3.213014
 ---------------------------------------------------------------------

 SCF Done:  E(RCAM-B3LYP) =  -2911.20872556     A.U. after   13 cycles

 Alpha  occ. eigenvalues --  -24.84392 -24.83802 -24.83670 -24.83643 -24.83575
 Alpha  occ. eigenvalues --  -24.83565 -24.83483 -24.83463 -24.83233 -24.83194
 Alpha  occ. eigenvalues --  -24.83170 -24.83151 -24.83003 -24.82997 -24.82939
 Alpha  occ. eigenvalues --  -24.82857 -24.82851 -24.82130 -19.33266 -19.32958
 Alpha  occ. eigenvalues --  -19.24413 -19.24282 -19.24210 -14.53467 -14.53252
 Alpha  occ. eigenvalues --  -14.51058 -10.59752 -10.59540 -10.55839 -10.55549
 Alpha  occ. eigenvalues --  -10.53666 -10.53609 -10.49230 -10.49194 -10.47040
 Alpha  occ. eigenvalues --  -10.46114 -10.46097 -10.34352 -10.27967 -10.26970
 Alpha  occ. eigenvalues --  -10.26100  -1.43398  -1.43294  -1.42160  -1.41878
 Alpha  occ. eigenvalues --   -1.39295  -1.38689  -1.35837  -1.35744  -1.33718
 Alpha  occ. eigenvalues --   -1.33608  -1.33463  -1.33445  -1.33159  -1.32920
 Alpha  occ. eigenvalues --   -1.32551  -1.32261  -1.31778  -1.31123  -1.23635
 Alpha  occ. eigenvalues --   -1.20787  -1.20414  -1.18265  -1.18164  -1.10290
 Alpha  occ. eigenvalues --   -1.08846  -1.07354  -0.94157  -0.93463  -0.89033
 Alpha  occ. eigenvalues --   -0.86131  -0.84772  -0.84298  -0.82766  -0.82209
 Alpha  occ. eigenvalues --   -0.79512  -0.79142  -0.77490  -0.76006  -0.75551
 Alpha  occ. eigenvalues --   -0.74997  -0.73658  -0.73128  -0.72377  -0.71960
 Alpha  occ. eigenvalues --   -0.70705  -0.70642  -0.70097  -0.69712  -0.69162
 Alpha  occ. eigenvalues --   -0.68832  -0.68582  -0.67687  -0.67457  -0.66896
 Alpha  occ. eigenvalues --   -0.66493  -0.65722  -0.64967  -0.64173  -0.62901
 Alpha  occ. eigenvalues --   -0.60404  -0.60202  -0.59977  -0.58645  -0.57849
 Alpha  occ. eigenvalues --   -0.57418  -0.57291  -0.57218  -0.56971  -0.56381
 Alpha  occ. eigenvalues --   -0.56261  -0.56105  -0.55788  -0.55625  -0.55617
 Alpha  occ. eigenvalues --   -0.55111  -0.54876  -0.54732  -0.54525  -0.54199
 Alpha  occ. eigenvalues --   -0.54041  -0.53734  -0.53421  -0.53204  -0.53031
 Alpha  occ. eigenvalues --   -0.52802  -0.52556  -0.52336  -0.51985  -0.51894
 Alpha  occ. eigenvalues --   -0.51829  -0.51153  -0.50979  -0.50859  -0.50722
 Alpha  occ. eigenvalues --   -0.50563  -0.50487  -0.50296  -0.50055  -0.49835
 Alpha  occ. eigenvalues --   -0.49699  -0.49362  -0.49298  -0.49109  -0.49040
 Alpha  occ. eigenvalues --   -0.48799  -0.48596  -0.46088  -0.45970  -0.44809
 Alpha  occ. eigenvalues --   -0.44566  -0.40764  -0.39821  -0.39484  -0.38587
 Alpha  occ. eigenvalues --   -0.37637  -0.36150  -0.33124  -0.32398
 Alpha virt. eigenvalues --   -0.00017   0.00587   0.05308   0.06099   0.06790
 Alpha virt. eigenvalues --    0.08349   0.08979   0.10334   0.11377   0.13644
 Alpha virt. eigenvalues --    0.14497   0.15773   0.16463   0.17124   0.17791

 Mulliken charges:
               1
     1  C   -0.410042
     2  C   -0.013545
     3  C    0.037266
     4  C   -0.178792
     5  N   -0.570491
     6  C    0.836329
     7  O   -0.489855
     8  N   -0.653983
     9  C    0.761002
    10  F   -0.250975
    11  F   -0.255267
    12  C    0.437252
    13  F   -0.254718
    14  O   -0.508808
    15  C    0.997763
    16  F   -0.242723
    17  F   -0.238561
    18  F   -0.242139
    19  C    0.814480
    20  F   -0.245243
    21  F   -0.258993
    22  F   -0.243568
    23  C    0.865591
    24  O   -0.494647
    25  N   -0.650127
    26  C    0.747198
    27  F   -0.266534
    28  F   -0.245247
    29  C    0.437006
    30  F   -0.252931
    31  O   -0.512461
    32  C    0.997092
    33  F   -0.245457
    34  F   -0.238564
    35  F   -0.242886
    36  C    0.815862
    37  F   -0.250032
    38  F   -0.252910
    39  F   -0.233921
    40  C    0.845584
    41  O   -0.491474
    42  H    0.155007
    43  H    0.153595
    44  H    0.153753
    45  H    0.188605
    46  H    0.191508
 Sum of Mulliken charges =   0.00000

 Dipole moment (field-independent basis, Debye):
    X=             -0.5462    Y=              2.7084    Z=             -1.5047  Tot=              3.1461
 Quadrupole moment (field-independent basis, Debye-Ang):
   XX=           -225.2573   YY=           -208.5345   ZZ=           -217.9841
   XY=            -10.4856   XZ=             -5.5673   YZ=              0.2285

 Normal termination of Gaussian 09 at Sun Mar  3 18:21:02 2024.
