 Gaussian 09, Revision D.01,
 Gaussian 09:  ES64L-G09RevD.01 24-Apr-2013

 ----------------------------------------------------------------------
 #p CAM-B3LYP/6-31G(d,p) SCRF=(PCM,Solvent=Generic,Read) NoSymm out=wfn
 ----------------------------------------------------------------------

 ------------------
 Title A891418170_0
 ------------------
 Symbolic Z-matrix:
 Charge =  0 Multiplicity = 1

                          Input orientation:
 ---------------------------------------------------------------------
 Center     Atomic      Atomic             Coordinates (Angstroms)
 Number     Number       Type             X           Y           Z
 ---------------------------------------------------------------------
      1          6           0       -4.230835   -0.369709    0.448343
      2          6           0       -3.080679    0.437275    1.033239
      3          7           0       -1.993747    0.596670    0.069255
      4          6           0       -2.008887    1.698002   -0.753040
      5          8           0       -2.884594    2.559044   -0.749393
      6          7           0       -0.955167    1.811352   -1.599619
      7          6           0        0.079738    0.937342   -1.681205
      8          8           0        1.051311    1.238292   -2.366923
      9          7           0       -0.041126   -0.218269   -0.957442
     10          6           0        1.025215   -1.205844   -1.053320
     11          9           0        0.539409   -2.452365   -0.782312
     12          9           0        1.365478   -1.308485   -2.381869
     13          6           0        2.335713   -0.968040   -0.253768
     14          9           0        3.221363   -1.949389   -0.623818
     15          8           0        2.926963    0.270717   -0.659447
     16          6           0        4.077748    0.615605    0.062646
     17          9           0        3.703678    1.167820    1.230069
     18          9           0        4.862520   -0.448557    0.287021
     19          9           0        4.771312    1.530608   -0.638893
     20          6           0        2.030980   -1.109812    1.238698
     21          9           0        1.246603   -0.092568    1.668689
     22          9           0        1.429231   -2.273503    1.550361
     23          9           0        3.161009   -1.059858    1.985202
     24          6           0       -1.010815   -0.374717    0.005447
     25          8           0       -0.990725   -1.316790    0.795732
     26          1           0       -4.642766    0.119369   -0.440462
     27          1           0       -3.900516   -1.371545    0.155039
     28          1           0       -5.033792   -0.475731    1.184170
     29          1           0       -3.447361    1.422985    1.341275
     30          1           0       -2.705123   -0.061501    1.933679
     31          1           0       -0.902133    2.651602   -2.157727
 ---------------------------------------------------------------------

 SCF Done:  E(RCAM-B3LYP) =  -1709.82142155     A.U. after   13 cycles

 Alpha  occ. eigenvalues --  -24.83719 -24.83561 -24.83386 -24.83231 -24.83103
 Alpha  occ. eigenvalues --  -24.82818 -24.82785 -24.82660 -24.81817 -19.32751
 Alpha  occ. eigenvalues --  -19.23294 -19.22862 -19.22449 -14.52615 -14.49755
 Alpha  occ. eigenvalues --  -14.49003 -10.59407 -10.55448 -10.53233 -10.48920
 Alpha  occ. eigenvalues --  -10.45362 -10.45043 -10.43881 -10.31312 -10.25902
 Alpha  occ. eigenvalues --   -1.43112  -1.41778  -1.38605  -1.35090  -1.33318
 Alpha  occ. eigenvalues --   -1.33155  -1.32982  -1.32193  -1.30917  -1.22040
 Alpha  occ. eigenvalues --   -1.20410  -1.16883  -1.16442  -1.09014  -1.06600
 Alpha  occ. eigenvalues --   -1.04439  -0.93438  -0.86855  -0.84003  -0.82064
 Alpha  occ. eigenvalues --   -0.79919  -0.78444  -0.76553  -0.74055  -0.73315
 Alpha  occ. eigenvalues --   -0.72470  -0.71330  -0.70340  -0.69419  -0.68977
 Alpha  occ. eigenvalues --   -0.68317  -0.66359  -0.66231  -0.64269  -0.63106
 Alpha  occ. eigenvalues --   -0.61539  -0.59541  -0.57785  -0.57453  -0.56998
 Alpha  occ. eigenvalues --   -0.56048  -0.55857  -0.55636  -0.54936  -0.54624
 Alpha  occ. eigenvalues --   -0.53929  -0.53627  -0.53447  -0.52925  -0.52765
 Alpha  occ. eigenvalues --   -0.52448  -0.52118  -0.51419  -0.51174  -0.50948
 Alpha  occ. eigenvalues --   -0.50686  -0.50083  -0.50022  -0.49389  -0.48958
 Alpha  occ. eigenvalues --   -0.48632  -0.46591  -0.45785  -0.45038  -0.44426
 Alpha  occ. eigenvalues --   -0.42311  -0.39254  -0.38806  -0.38206  -0.36883
 Alpha  occ. eigenvalues --   -0.35824  -0.35032
 Alpha virt. eigenvalues --    0.01821   0.02360   0.06512   0.07685   0.12734
 Alpha virt. eigenvalues --    0.13132   0.14852   0.15683   0.16906   0.19090
 Alpha virt. eigenvalues --    0.19423   0.19939   0.21078   0.21888   0.22133

 Mulliken charges:
               1
     1  C   -0.325959
     2  C   -0.066875
     3  N   -0.557695
     4  C    0.794243
     5  O   -0.521625
     6  N   -0.597577
     7  C    0.808005
     8  O   -0.499406
     9  N   -0.622835
    10  C    0.742017
    11  F   -0.248244
    12  F   -0.265616
    13  C    0.435530
    14  F   -0.268636
    15  O   -0.501502
    16  C    0.995308
    17  F   -0.248997
    18  F   -0.242560
    19  F   -0.238024
    20  C    0.816215
    21  F   -0.250187
    22  F   -0.234887
    23  F   -0.255947
    24  C    0.840363
    25  O   -0.512923
    26  H    0.126823
    27  H    0.127072
    28  H    0.128549
    29  H    0.155030
    30  H    0.155564
    31  H    0.334775
 Sum of Mulliken charges =   0.00000

 Dipole moment (field-independent basis, Debye):
    X=             -2.3112    Y=              0.8714    Z=              0.6972  Tot=              2.5665
 Quadrupole moment (field-independent basis, Debye-Ang):
   XX=           -135.8807   YY=           -140.6534   ZZ=           -136.6552
   XY=              3.9111   XZ=              2.2493   YZ=              1.8519

 Normal termination of Gaussian 09 at Sun Mar  3 18:04:07 2024.
