 Gaussian 09, Revision D.01,
 Gaussian 09:  ES64L-G09RevD.01 24-Apr-2013

 ----------------------------------------------------------------------
 #p CAM-B3LYP/6-31G(d,p) SCRF=(PCM,Solvent=Generic,Read) NoSymm out=wfn
 ----------------------------------------------------------------------

 -------------------
 Title A603415621_p1
 -------------------
 Symbolic Z-matrix:
 Charge =  1 Multiplicity = 2

                          Input orientation:
 ---------------------------------------------------------------------
 Center     Atomic      Atomic             Coordinates (Angstroms)
 Number     Number       Type             X           Y           Z
 ---------------------------------------------------------------------
      1          6           0        2.156077    5.136137    1.866473
      2          6           0        1.698721    3.785850    2.197066
      3          6           0        1.322665    2.677843    2.469798
      4          6           0        0.860305    1.318804    2.795118
      5          7           0        0.442779    0.627363    1.582537
      6          6           0       -0.880069    0.694218    1.209189
      7          8           0       -1.690864    1.403608    1.798325
      8          7           0       -1.240898   -0.088091    0.139389
      9          6           0       -2.659763   -0.150912   -0.190487
     10          9           0       -3.313639   -0.413531    0.984116
     11          9           0       -2.927912   -1.266532   -0.930412
     12          6           0       -3.334385    1.074256   -0.880231
     13          9           0       -3.238999    2.195776   -0.109311
     14          8           0       -4.727577    0.931410   -1.206001
     15          6           0       -5.532003    0.591089   -0.108714
     16          9           0       -6.802333    0.939076   -0.389250
     17          9           0       -5.147380    1.226335    1.007679
     18          9           0       -5.486561   -0.739351    0.073933
     19          6           0       -2.596108    1.350808   -2.185054
     20          9           0       -2.654432    0.312702   -3.044075
     21          9           0       -3.125397    2.421550   -2.830142
     22          9           0       -1.290357    1.643549   -1.971626
     23          6           0       -0.314656   -0.586989   -0.741823
     24          8           0       -0.655806   -1.128132   -1.788983
     25          7           0        1.007042   -0.438186   -0.406043
     26          6           0        2.002125   -1.072052   -1.263721
     27          9           0        1.704921   -0.776420   -2.561002
     28          9           0        3.207388   -0.462349   -1.072443
     29          6           0        2.146578   -2.603416   -1.075807
     30          9           0        0.973820   -3.207690   -1.428782
     31          8           0        2.314859   -2.899574    0.315521
     32          6           0        2.698627   -4.227255    0.557540
     33          9           0        1.970379   -5.081109   -0.177339
     34          9           0        2.496637   -4.496458    1.860595
     35          9           0        4.004148   -4.371210    0.282731
     36          6           0        3.268021   -3.029313   -2.033796
     37          9           0        3.400558   -4.377490   -2.073647
     38          9           0        3.050687   -2.636363   -3.307365
     39          9           0        4.467985   -2.534226   -1.656520
     40          6           0        1.395007   -0.050586    0.852805
     41          8           0        2.505731   -0.305767    1.313047
     42          1           0        2.858288    5.114192    1.027644
     43          1           0        2.661714    5.595670    2.721077
     44          1           0        1.312694    5.774703    1.586924
     45          1           0        0.026561    1.367361    3.504506
     46          1           0        1.664823    0.760700    3.286560
 ---------------------------------------------------------------------

 SCF Done:  E(UCAM-B3LYP) =  -2910.91325834     A.U. after   26 cycles

 Alpha  occ. eigenvalues --  -24.86451 -24.85529 -24.85189 -24.85170 -24.85126
 Alpha  occ. eigenvalues --  -24.85109 -24.85016 -24.84987 -24.84972 -24.84924
 Alpha  occ. eigenvalues --  -24.84864 -24.84754 -24.84657 -24.84634 -24.84578
 Alpha  occ. eigenvalues --  -24.84576 -24.84305 -24.84203 -19.34971 -19.34668
 Alpha  occ. eigenvalues --  -19.28448 -19.28447 -19.27040 -14.56564 -14.56345
 Alpha  occ. eigenvalues --  -14.56325 -10.61241 -10.60829 -10.57345 -10.57054
 Alpha  occ. eigenvalues --  -10.56161 -10.55972 -10.51127 -10.51013 -10.50232
 Alpha  occ. eigenvalues --  -10.50185 -10.49834 -10.46328 -10.45512 -10.43522
 Alpha  occ. eigenvalues --  -10.37275  -1.44836  -1.44437  -1.43845  -1.43357
 Alpha  occ. eigenvalues --   -1.41447  -1.41192  -1.37686  -1.37573  -1.35231
 Alpha  occ. eigenvalues --   -1.35117  -1.34911  -1.34757  -1.34596  -1.34299
 Alpha  occ. eigenvalues --   -1.33967  -1.33718  -1.33638  -1.33598  -1.27333
 Alpha  occ. eigenvalues --   -1.22618  -1.22109  -1.21962  -1.21719  -1.13868
 Alpha  occ. eigenvalues --   -1.12264  -1.12083  -1.04325  -0.96601  -0.95443
 Alpha  occ. eigenvalues --   -0.94583  -0.90488  -0.88491  -0.87548  -0.83995
 Alpha  occ. eigenvalues --   -0.82990  -0.82524  -0.82158  -0.79344  -0.78941
 Alpha  occ. eigenvalues --   -0.77795  -0.75955  -0.74761  -0.74404  -0.73733
 Alpha  occ. eigenvalues --   -0.72698  -0.72281  -0.71982  -0.71187  -0.70897
 Alpha  occ. eigenvalues --   -0.70307  -0.70100  -0.70040  -0.69631  -0.69500
 Alpha  occ. eigenvalues --   -0.69006  -0.68297  -0.67705  -0.67342  -0.66599
 Alpha  occ. eigenvalues --   -0.66013  -0.64802  -0.63618  -0.63007  -0.61883
 Alpha  occ. eigenvalues --   -0.61699  -0.60409  -0.59564  -0.59387  -0.59163
 Alpha  occ. eigenvalues --   -0.59081  -0.58902  -0.58745  -0.58448  -0.58365
 Alpha  occ. eigenvalues --   -0.58153  -0.57971  -0.57459  -0.57367  -0.57081
 Alpha  occ. eigenvalues --   -0.56943  -0.56717  -0.56577  -0.56428  -0.56018
 Alpha  occ. eigenvalues --   -0.55539  -0.55338  -0.55119  -0.54866  -0.54299
 Alpha  occ. eigenvalues --   -0.54158  -0.53908  -0.53837  -0.53501  -0.53263
 Alpha  occ. eigenvalues --   -0.52789  -0.52579  -0.52514  -0.52235  -0.52120
 Alpha  occ. eigenvalues --   -0.51918  -0.51515  -0.51460  -0.50812  -0.50784
 Alpha  occ. eigenvalues --   -0.50623  -0.50475  -0.49412  -0.48396  -0.47830
 Alpha  occ. eigenvalues --   -0.47613  -0.46676  -0.46577  -0.44184  -0.43202
 Alpha  occ. eigenvalues --   -0.42902  -0.42265  -0.41470  -0.39596
 Alpha virt. eigenvalues --   -0.04787  -0.04114  -0.03485  -0.02316   0.03167
 Alpha virt. eigenvalues --    0.03908   0.04536   0.05897   0.07962   0.09819
 Alpha virt. eigenvalues --    0.10572   0.10931   0.12396   0.12932   0.14724

  Beta  occ. eigenvalues --  -24.86451 -24.85528 -24.85189 -24.85170 -24.85126
  Beta  occ. eigenvalues --  -24.85109 -24.85016 -24.84987 -24.84972 -24.84923
  Beta  occ. eigenvalues --  -24.84864 -24.84754 -24.84657 -24.84634 -24.84578
  Beta  occ. eigenvalues --  -24.84576 -24.84305 -24.84203 -19.34971 -19.34668
  Beta  occ. eigenvalues --  -19.28439 -19.28438 -19.27040 -14.56563 -14.56345
  Beta  occ. eigenvalues --  -14.56330 -10.61241 -10.60829 -10.57345 -10.57054
  Beta  occ. eigenvalues --  -10.56161 -10.55972 -10.51127 -10.51013 -10.50232
  Beta  occ. eigenvalues --  -10.50185 -10.49834 -10.45662 -10.44814 -10.43520
  Beta  occ. eigenvalues --  -10.37266  -1.44836  -1.44437  -1.43845  -1.43357
  Beta  occ. eigenvalues --   -1.41447  -1.41192  -1.37686  -1.37573  -1.35231
  Beta  occ. eigenvalues --   -1.35117  -1.34911  -1.34757  -1.34596  -1.34299
  Beta  occ. eigenvalues --   -1.33967  -1.33718  -1.33638  -1.33598  -1.27328
  Beta  occ. eigenvalues --   -1.22615  -1.22106  -1.21954  -1.21711  -1.13852
  Beta  occ. eigenvalues --   -1.12194  -1.12074  -1.01224  -0.96452  -0.95442
  Beta  occ. eigenvalues --   -0.94267  -0.89546  -0.88337  -0.87540  -0.83994
  Beta  occ. eigenvalues --   -0.82925  -0.82507  -0.82121  -0.79298  -0.78906
  Beta  occ. eigenvalues --   -0.77789  -0.75934  -0.74758  -0.74401  -0.73730
  Beta  occ. eigenvalues --   -0.72668  -0.72280  -0.71967  -0.71144  -0.70896
  Beta  occ. eigenvalues --   -0.70279  -0.70090  -0.69757  -0.69585  -0.69434
  Beta  occ. eigenvalues --   -0.68980  -0.68236  -0.67690  -0.67303  -0.66581
  Beta  occ. eigenvalues --   -0.65927  -0.64387  -0.63210  -0.61886  -0.61699
  Beta  occ. eigenvalues --   -0.60417  -0.60376  -0.59383  -0.59075  -0.58908
  Beta  occ. eigenvalues --   -0.58849  -0.58728  -0.58448  -0.58357  -0.58136
  Beta  occ. eigenvalues --   -0.57970  -0.57673  -0.57447  -0.57332  -0.56966
  Beta  occ. eigenvalues --   -0.56732  -0.56716  -0.56536  -0.56334  -0.55975
  Beta  occ. eigenvalues --   -0.55510  -0.55318  -0.55113  -0.54860  -0.54292
  Beta  occ. eigenvalues --   -0.54157  -0.53907  -0.53821  -0.53498  -0.53255
  Beta  occ. eigenvalues --   -0.52779  -0.52577  -0.52511  -0.52233  -0.52117
  Beta  occ. eigenvalues --   -0.51918  -0.51514  -0.51460  -0.50807  -0.50782
  Beta  occ. eigenvalues --   -0.50607  -0.50472  -0.47900  -0.47649  -0.47397
  Beta  occ. eigenvalues --   -0.46676  -0.46571  -0.44148  -0.43173  -0.42885
  Beta  occ. eigenvalues --   -0.42188  -0.41464  -0.39584
  Beta virt. eigenvalues --   -0.26616  -0.04012  -0.03243  -0.02149   0.00684
  Beta virt. eigenvalues --    0.03168   0.03937   0.04594   0.05914   0.08059
  Beta virt. eigenvalues --    0.10303   0.10709   0.11023   0.12642   0.13185

 Mulliken charges and spin densities:
               1          2
     1  C   -0.433249   0.000028
     2  C    0.248499   0.411115
     3  C    0.295321   0.455893
     4  C   -0.210504  -0.007878
     5  N   -0.584644  -0.000130
     6  C    0.856209  -0.000797
     7  O   -0.480520   0.003348
     8  N   -0.652483   0.000189
     9  C    0.761349  -0.000011
    10  F   -0.263720   0.000003
    11  F   -0.238148   0.000002
    12  C    0.437562   0.000019
    13  F   -0.255188   0.000037
    14  O   -0.510462   0.000009
    15  C    1.001926   0.000000
    16  F   -0.238252   0.000000
    17  F   -0.241809   0.000000
    18  F   -0.243548   0.000000
    19  C    0.808052   0.000001
    20  F   -0.231359   0.000000
    21  F   -0.248677   0.000000
    22  F   -0.256486   0.000002
    23  C    0.852224  -0.000010
    24  O   -0.471915  -0.000061
    25  N   -0.656339  -0.000001
    26  C    0.762438   0.000001
    27  F   -0.248425   0.000015
    28  F   -0.251869   0.000047
    29  C    0.437988  -0.000005
    30  F   -0.253202   0.000000
    31  O   -0.510384  -0.000002
    32  C    0.998248  -0.000001
    33  F   -0.240027   0.000000
    34  F   -0.238651   0.000000
    35  F   -0.240566   0.000000
    36  C    0.818046   0.000000
    37  F   -0.255823   0.000000
    38  F   -0.241359   0.000000
    39  F   -0.245462   0.000000
    40  C    0.859087  -0.000080
    41  O   -0.475726   0.002486
    42  H    0.243861   0.026840
    43  H    0.234064   0.001341
    44  H    0.254326   0.047021
    45  H    0.273237   0.029137
    46  H    0.276359   0.031442
 Sum of Mulliken charges =   1.00000   1.00000

 Dipole moment (field-independent basis, Debye):
    X=              7.9968    Y=             16.6171    Z=             12.3383  Tot=             22.1881
 Quadrupole moment (field-independent basis, Debye-Ang):
   XX=           -209.3645   YY=           -140.7572   ZZ=           -189.6541
   XY=             33.8675   XZ=             15.7724   YZ=             30.9639

 Normal termination of Gaussian 09 at Sun Mar  3 18:24:16 2024.
