 Gaussian 09, Revision D.01,
 Gaussian 09:  ES64L-G09RevD.01 24-Apr-2013

 ----------------------------------------------------------------------
 #p CAM-B3LYP/6-31G(d,p) SCRF=(PCM,Solvent=Generic,Read) NoSymm out=wfn
 ----------------------------------------------------------------------

 ------------------
 Title A603415621_0
 ------------------
 Symbolic Z-matrix:
 Charge =  0 Multiplicity = 1

                          Input orientation:
 ---------------------------------------------------------------------
 Center     Atomic      Atomic             Coordinates (Angstroms)
 Number     Number       Type             X           Y           Z
 ---------------------------------------------------------------------
      1          6           0        2.156077    5.136137    1.866473
      2          6           0        1.698721    3.785850    2.197066
      3          6           0        1.322665    2.677843    2.469798
      4          6           0        0.860305    1.318804    2.795118
      5          7           0        0.442779    0.627363    1.582537
      6          6           0       -0.880069    0.694218    1.209189
      7          8           0       -1.690864    1.403608    1.798325
      8          7           0       -1.240898   -0.088091    0.139389
      9          6           0       -2.659763   -0.150912   -0.190487
     10          9           0       -3.313639   -0.413531    0.984116
     11          9           0       -2.927912   -1.266532   -0.930412
     12          6           0       -3.334385    1.074256   -0.880231
     13          9           0       -3.238999    2.195776   -0.109311
     14          8           0       -4.727577    0.931410   -1.206001
     15          6           0       -5.532003    0.591089   -0.108714
     16          9           0       -6.802333    0.939076   -0.389250
     17          9           0       -5.147380    1.226335    1.007679
     18          9           0       -5.486561   -0.739351    0.073933
     19          6           0       -2.596108    1.350808   -2.185054
     20          9           0       -2.654432    0.312702   -3.044075
     21          9           0       -3.125397    2.421550   -2.830142
     22          9           0       -1.290357    1.643549   -1.971626
     23          6           0       -0.314656   -0.586989   -0.741823
     24          8           0       -0.655806   -1.128132   -1.788983
     25          7           0        1.007042   -0.438186   -0.406043
     26          6           0        2.002125   -1.072052   -1.263721
     27          9           0        1.704921   -0.776420   -2.561002
     28          9           0        3.207388   -0.462349   -1.072443
     29          6           0        2.146578   -2.603416   -1.075807
     30          9           0        0.973820   -3.207690   -1.428782
     31          8           0        2.314859   -2.899574    0.315521
     32          6           0        2.698627   -4.227255    0.557540
     33          9           0        1.970379   -5.081109   -0.177339
     34          9           0        2.496637   -4.496458    1.860595
     35          9           0        4.004148   -4.371210    0.282731
     36          6           0        3.268021   -3.029313   -2.033796
     37          9           0        3.400558   -4.377490   -2.073647
     38          9           0        3.050687   -2.636363   -3.307365
     39          9           0        4.467985   -2.534226   -1.656520
     40          6           0        1.395007   -0.050586    0.852805
     41          8           0        2.505731   -0.305767    1.313047
     42          1           0        2.858288    5.114192    1.027644
     43          1           0        2.661714    5.595670    2.721077
     44          1           0        1.312694    5.774703    1.586924
     45          1           0        0.026561    1.367361    3.504506
     46          1           0        1.664823    0.760700    3.286560
 ---------------------------------------------------------------------

 SCF Done:  E(RCAM-B3LYP) =  -2911.20865541     A.U. after   13 cycles

 Alpha  occ. eigenvalues --  -24.84428 -24.83821 -24.83684 -24.83607 -24.83498
 Alpha  occ. eigenvalues --  -24.83472 -24.83298 -24.83274 -24.83237 -24.83183
 Alpha  occ. eigenvalues --  -24.83180 -24.83081 -24.83011 -24.82920 -24.82892
 Alpha  occ. eigenvalues --  -24.82874 -24.82867 -24.82542 -19.33259 -19.33022
 Alpha  occ. eigenvalues --  -19.24398 -19.24387 -19.24385 -14.53539 -14.53291
 Alpha  occ. eigenvalues --  -14.51088 -10.59769 -10.59380 -10.55573 -10.55531
 Alpha  occ. eigenvalues --  -10.53934 -10.53689 -10.49217 -10.49184 -10.47137
 Alpha  occ. eigenvalues --  -10.46153 -10.46128 -10.34381 -10.27968 -10.26982
 Alpha  occ. eigenvalues --  -10.26107  -1.43425  -1.42922  -1.42085  -1.41898
 Alpha  occ. eigenvalues --   -1.39325  -1.39159  -1.35903  -1.35696  -1.33748
 Alpha  occ. eigenvalues --   -1.33478  -1.33363  -1.33257  -1.32937  -1.32874
 Alpha  occ. eigenvalues --   -1.32281  -1.32277  -1.31802  -1.31657  -1.23739
 Alpha  occ. eigenvalues --   -1.20821  -1.20416  -1.18368  -1.18236  -1.10390
 Alpha  occ. eigenvalues --   -1.08934  -1.07410  -0.94206  -0.93525  -0.89115
 Alpha  occ. eigenvalues --   -0.86392  -0.84858  -0.84607  -0.82266  -0.80874
 Alpha  occ. eigenvalues --   -0.80120  -0.79473  -0.77665  -0.76038  -0.75572
 Alpha  occ. eigenvalues --   -0.75114  -0.73532  -0.73078  -0.72505  -0.71943
 Alpha  occ. eigenvalues --   -0.70747  -0.70558  -0.70194  -0.69437  -0.69177
 Alpha  occ. eigenvalues --   -0.68684  -0.68283  -0.67904  -0.67552  -0.66839
 Alpha  occ. eigenvalues --   -0.66688  -0.65727  -0.65024  -0.64429  -0.63144
 Alpha  occ. eigenvalues --   -0.60332  -0.60125  -0.60061  -0.58667  -0.57808
 Alpha  occ. eigenvalues --   -0.57304  -0.57268  -0.57177  -0.56820  -0.56413
 Alpha  occ. eigenvalues --   -0.56344  -0.56208  -0.55899  -0.55742  -0.55126
 Alpha  occ. eigenvalues --   -0.55084  -0.54868  -0.54808  -0.54624  -0.54267
 Alpha  occ. eigenvalues --   -0.53879  -0.53603  -0.53470  -0.53248  -0.52989
 Alpha  occ. eigenvalues --   -0.52699  -0.52559  -0.52304  -0.52249  -0.51711
 Alpha  occ. eigenvalues --   -0.51621  -0.51119  -0.50974  -0.50877  -0.50677
 Alpha  occ. eigenvalues --   -0.50673  -0.50533  -0.50113  -0.50058  -0.49888
 Alpha  occ. eigenvalues --   -0.49745  -0.49658  -0.49362  -0.49114  -0.48987
 Alpha  occ. eigenvalues --   -0.48907  -0.48770  -0.46019  -0.45829  -0.44868
 Alpha  occ. eigenvalues --   -0.44760  -0.40720  -0.39970  -0.39556  -0.38667
 Alpha  occ. eigenvalues --   -0.37659  -0.36251  -0.33133  -0.32409
 Alpha virt. eigenvalues --   -0.00095   0.00525   0.05227   0.06053   0.06784
 Alpha virt. eigenvalues --    0.08393   0.09067   0.10264   0.11206   0.13101
 Alpha virt. eigenvalues --    0.14955   0.16143   0.16467   0.17102   0.17734

 Mulliken charges:
               1
     1  C   -0.410339
     2  C   -0.012999
     3  C    0.036954
     4  C   -0.179198
     5  N   -0.570768
     6  C    0.841995
     7  O   -0.490981
     8  N   -0.650495
     9  C    0.758979
    10  F   -0.266775
    11  F   -0.244095
    12  C    0.437750
    13  F   -0.252728
    14  O   -0.515222
    15  C    0.999980
    16  F   -0.240920
    17  F   -0.240499
    18  F   -0.245074
    19  C    0.806673
    20  F   -0.234772
    21  F   -0.251462
    22  F   -0.252439
    23  C    0.845655
    24  O   -0.489477
    25  N   -0.653547
    26  C    0.762399
    27  F   -0.253223
    28  F   -0.252387
    29  C    0.436079
    30  F   -0.256152
    31  O   -0.505985
    32  C    0.996428
    33  F   -0.242392
    34  F   -0.239266
    35  F   -0.242216
    36  C    0.814990
    37  F   -0.258803
    38  F   -0.243010
    39  F   -0.245624
    40  C    0.849461
    41  O   -0.489768
    42  H    0.153661
    43  H    0.155298
    44  H    0.153896
    45  H    0.188682
    46  H    0.191737
 Sum of Mulliken charges =   0.00000

 Dipole moment (field-independent basis, Debye):
    X=              1.3236    Y=              1.9530    Z=              2.2942  Tot=              3.2908
 Quadrupole moment (field-independent basis, Debye-Ang):
   XX=           -228.9571   YY=           -206.0881   ZZ=           -218.9934
   XY=              8.8468   XZ=              0.4276   YZ=             -2.1319

 Normal termination of Gaussian 09 at Sun Mar  3 18:22:03 2024.
