 Gaussian 09, Revision D.01,
 Gaussian 09:  ES64L-G09RevD.01 24-Apr-2013

 ----------------------------------------------------------------------
 #p CAM-B3LYP/6-31G(d,p) SCRF=(PCM,Solvent=Generic,Read) NoSymm out=wfn
 ----------------------------------------------------------------------

 ------------------
 Title A897162772_0
 ------------------
 Symbolic Z-matrix:
 Charge =  0 Multiplicity = 1

                          Input orientation:
 ---------------------------------------------------------------------
 Center     Atomic      Atomic             Coordinates (Angstroms)
 Number     Number       Type             X           Y           Z
 ---------------------------------------------------------------------
      1          6           0       -0.225968    5.507760   -0.470807
      2          8           0       -0.316500    4.111360   -0.718665
      3          6           0        0.033444    3.354315    0.436840
      4          7           0       -0.089396    1.956454    0.079068
      5          6           0        1.020849    1.312696   -0.413504
      6          8           0        2.125333    1.851367   -0.450677
      7          7           0        0.842966    0.010755   -0.803947
      8          6           0        2.007155   -0.749696   -1.240817
      9          9           0        1.573512   -1.643052   -2.189474
     10          9           0        2.848861    0.050428   -1.947728
     11          6           0        2.780402   -1.550317   -0.151268
     12          9           0        1.864151   -2.002973    0.777527
     13          8           0        3.362238   -2.775540   -0.627637
     14          6           0        4.506484   -2.604394   -1.422967
     15          9           0        4.819584   -3.782883   -1.989450
     16          9           0        5.534022   -2.205551   -0.658550
     17          9           0        4.283982   -1.704707   -2.388312
     18          6           0        3.727446   -0.626494    0.613433
     19          9           0        4.465109   -1.334171    1.506425
     20          9           0        3.045267    0.290261    1.337889
     21          9           0        4.592685    0.026414   -0.185182
     22          6           0       -0.310573   -0.685910   -0.537710
     23          8           0       -0.352492   -1.911487   -0.584112
     24          7           0       -1.409860    0.049875   -0.172815
     25          6           0       -2.666932   -0.664601    0.013554
     26          9           0       -2.841588   -1.424820   -1.112834
     27          9           0       -3.719610    0.203426   -0.049894
     28          6           0       -2.856345   -1.577688    1.264897
     29          9           0       -1.942296   -2.590351    1.286627
     30          8           0       -4.144680   -2.202243    1.402842
     31          6           0       -4.527591   -2.957985    0.284893
     32          9           0       -5.468730   -3.840288    0.671731
     33          9           0       -3.493785   -3.632307   -0.238722
     34          9           0       -5.065025   -2.140704   -0.636161
     35          6           0       -2.632090   -0.736666    2.515788
     36          9           0       -2.756429   -1.489232    3.639463
     37          9           0       -1.383348   -0.209659    2.551100
     38          9           0       -3.516849    0.274563    2.630385
     39          6           0       -1.300874    1.338715    0.283796
     40          8           0       -2.211000    1.882783    0.905178
     41          1           0       -0.503838    6.038374   -1.385392
     42          1           0       -0.915692    5.801159    0.326472
     43          1           0        0.798719    5.784202   -0.204253
     44          1           0       -0.640189    3.607013    1.263180
     45          1           0        1.059475    3.591800    0.739197
 ---------------------------------------------------------------------

 SCF Done:  E(RCAM-B3LYP) =  -2910.28368851     A.U. after   13 cycles

 Alpha  occ. eigenvalues --  -24.84441 -24.84201 -24.83834 -24.83749 -24.83722
 Alpha  occ. eigenvalues --  -24.83508 -24.83473 -24.83406 -24.83316 -24.83282
 Alpha  occ. eigenvalues --  -24.83250 -24.83054 -24.82924 -24.82867 -24.82853
 Alpha  occ. eigenvalues --  -24.82784 -24.82595 -24.82293 -19.33329 -19.33019
 Alpha  occ. eigenvalues --  -19.25048 -19.24361 -19.24339 -19.24099 -14.53788
 Alpha  occ. eigenvalues --  -14.53750 -14.51452 -10.59841 -10.59366 -10.55547
 Alpha  occ. eigenvalues --  -10.55539 -10.54029 -10.53658 -10.49362 -10.49217
 Alpha  occ. eigenvalues --  -10.47420 -10.46472 -10.46431 -10.36885 -10.30880
 Alpha  occ. eigenvalues --   -1.43667  -1.42909  -1.42063  -1.42001  -1.39218
 Alpha  occ. eigenvalues --   -1.39086  -1.35694  -1.35599  -1.34162  -1.33647
 Alpha  occ. eigenvalues --   -1.33365  -1.33245  -1.32996  -1.32858  -1.32338
 Alpha  occ. eigenvalues --   -1.32233  -1.31731  -1.31514  -1.24083  -1.20697
 Alpha  occ. eigenvalues --   -1.20399  -1.18825  -1.18515  -1.13584  -1.10618
 Alpha  occ. eigenvalues --   -1.09151  -1.06815  -0.94020  -0.93193  -0.87067
 Alpha  occ. eigenvalues --   -0.84914  -0.84591  -0.82558  -0.80874  -0.80025
 Alpha  occ. eigenvalues --   -0.79549  -0.77084  -0.76097  -0.75600  -0.74709
 Alpha  occ. eigenvalues --   -0.73584  -0.72983  -0.72134  -0.71795  -0.71412
 Alpha  occ. eigenvalues --   -0.70580  -0.70287  -0.69694  -0.69302  -0.68931
 Alpha  occ. eigenvalues --   -0.68458  -0.68054  -0.67895  -0.67256  -0.65872
 Alpha  occ. eigenvalues --   -0.65315  -0.64826  -0.64006  -0.63357  -0.61042
 Alpha  occ. eigenvalues --   -0.60117  -0.59307  -0.57945  -0.57722  -0.57624
 Alpha  occ. eigenvalues --   -0.57403  -0.57176  -0.57000  -0.56855  -0.56767
 Alpha  occ. eigenvalues --   -0.56579  -0.56343  -0.55946  -0.55437  -0.55225
 Alpha  occ. eigenvalues --   -0.55004  -0.54916  -0.54756  -0.54576  -0.54202
 Alpha  occ. eigenvalues --   -0.53920  -0.53581  -0.53375  -0.53086  -0.53035
 Alpha  occ. eigenvalues --   -0.52520  -0.52394  -0.52078  -0.51734  -0.51681
 Alpha  occ. eigenvalues --   -0.51355  -0.51134  -0.50946  -0.50810  -0.50611
 Alpha  occ. eigenvalues --   -0.50351  -0.50101  -0.49792  -0.49703  -0.49353
 Alpha  occ. eigenvalues --   -0.49217  -0.49053  -0.48715  -0.48636  -0.47996
 Alpha  occ. eigenvalues --   -0.47722  -0.45847  -0.44823  -0.44158  -0.41371
 Alpha  occ. eigenvalues --   -0.41045  -0.39733  -0.39276  -0.39073  -0.38003
 Alpha  occ. eigenvalues --   -0.36645  -0.33782
 Alpha virt. eigenvalues --   -0.00050   0.00036   0.04898   0.05600   0.06475
 Alpha virt. eigenvalues --    0.07657   0.09459   0.12963   0.14072   0.15078
 Alpha virt. eigenvalues --    0.15927   0.16896   0.18537   0.18857   0.19279

 Mulliken charges:
               1
     1  C   -0.083079
     2  O   -0.499349
     3  C    0.207535
     4  N   -0.603658
     5  C    0.848069
     6  O   -0.495636
     7  N   -0.639428
     8  C    0.764811
     9  F   -0.271408
    10  F   -0.244822
    11  C    0.435836
    12  F   -0.272223
    13  O   -0.494887
    14  C    0.978272
    15  F   -0.236163
    16  F   -0.240059
    17  F   -0.234576
    18  C    0.819113
    19  F   -0.258539
    20  F   -0.245184
    21  F   -0.242897
    22  C    0.853868
    23  O   -0.477185
    24  N   -0.648570
    25  C    0.764298
    26  F   -0.266881
    27  F   -0.245060
    28  C    0.437094
    29  F   -0.252198
    30  O   -0.515472
    31  C    0.999773
    32  F   -0.241024
    33  F   -0.240220
    34  F   -0.244770
    35  C    0.808089
    36  F   -0.252174
    37  F   -0.255271
    38  F   -0.234271
    39  C    0.843426
    40  O   -0.494686
    41  H    0.136545
    42  H    0.115863
    43  H    0.115828
    44  H    0.150909
    45  H    0.150360
 Sum of Mulliken charges =   0.00000

 Dipole moment (field-independent basis, Debye):
    X=              0.8426    Y=              3.6245    Z=              0.5547  Tot=              3.7623
 Quadrupole moment (field-independent basis, Debye-Ang):
   XX=           -223.9239   YY=           -201.5675   ZZ=           -213.1847
   XY=             -0.4777   XZ=              3.5043   YZ=              2.7664

 Normal termination of Gaussian 09 at Sun Mar  3 18:01:33 2024.
