 Gaussian 09, Revision D.01,
 Gaussian 09:  ES64L-G09RevD.01 24-Apr-2013

 ----------------------------------------------------------------------
 #p CAM-B3LYP/6-31G(d,p) SCRF=(PCM,Solvent=Generic,Read) NoSymm out=wfn
 ----------------------------------------------------------------------

 -------------------
 Title A897162772_p1
 -------------------
 Symbolic Z-matrix:
 Charge =  1 Multiplicity = 2

                          Input orientation:
 ---------------------------------------------------------------------
 Center     Atomic      Atomic             Coordinates (Angstroms)
 Number     Number       Type             X           Y           Z
 ---------------------------------------------------------------------
      1          6           0       -0.225968    5.507760   -0.470807
      2          8           0       -0.316500    4.111360   -0.718665
      3          6           0        0.033444    3.354315    0.436840
      4          7           0       -0.089396    1.956454    0.079068
      5          6           0        1.020849    1.312696   -0.413504
      6          8           0        2.125333    1.851367   -0.450677
      7          7           0        0.842966    0.010755   -0.803947
      8          6           0        2.007155   -0.749696   -1.240817
      9          9           0        1.573512   -1.643052   -2.189474
     10          9           0        2.848861    0.050428   -1.947728
     11          6           0        2.780402   -1.550317   -0.151268
     12          9           0        1.864151   -2.002973    0.777527
     13          8           0        3.362238   -2.775540   -0.627637
     14          6           0        4.506484   -2.604394   -1.422967
     15          9           0        4.819584   -3.782883   -1.989450
     16          9           0        5.534022   -2.205551   -0.658550
     17          9           0        4.283982   -1.704707   -2.388312
     18          6           0        3.727446   -0.626494    0.613433
     19          9           0        4.465109   -1.334171    1.506425
     20          9           0        3.045267    0.290261    1.337889
     21          9           0        4.592685    0.026414   -0.185182
     22          6           0       -0.310573   -0.685910   -0.537710
     23          8           0       -0.352492   -1.911487   -0.584112
     24          7           0       -1.409860    0.049875   -0.172815
     25          6           0       -2.666932   -0.664601    0.013554
     26          9           0       -2.841588   -1.424820   -1.112834
     27          9           0       -3.719610    0.203426   -0.049894
     28          6           0       -2.856345   -1.577688    1.264897
     29          9           0       -1.942296   -2.590351    1.286627
     30          8           0       -4.144680   -2.202243    1.402842
     31          6           0       -4.527591   -2.957985    0.284893
     32          9           0       -5.468730   -3.840288    0.671731
     33          9           0       -3.493785   -3.632307   -0.238722
     34          9           0       -5.065025   -2.140704   -0.636161
     35          6           0       -2.632090   -0.736666    2.515788
     36          9           0       -2.756429   -1.489232    3.639463
     37          9           0       -1.383348   -0.209659    2.551100
     38          9           0       -3.516849    0.274563    2.630385
     39          6           0       -1.300874    1.338715    0.283796
     40          8           0       -2.211000    1.882783    0.905178
     41          1           0       -0.503838    6.038374   -1.385392
     42          1           0       -0.915692    5.801159    0.326472
     43          1           0        0.798719    5.784202   -0.204253
     44          1           0       -0.640189    3.607013    1.263180
     45          1           0        1.059475    3.591800    0.739197
 ---------------------------------------------------------------------

 SCF Done:  E(UCAM-B3LYP) =  -2909.97505946     A.U. after   23 cycles

 Alpha  occ. eigenvalues --  -24.86613 -24.85987 -24.85832 -24.85682 -24.85563
 Alpha  occ. eigenvalues --  -24.85389 -24.85339 -24.85283 -24.85104 -24.84990
 Alpha  occ. eigenvalues --  -24.84929 -24.84869 -24.84699 -24.84603 -24.84585
 Alpha  occ. eigenvalues --  -24.84511 -24.84481 -24.84361 -19.50908 -19.34998
 Alpha  occ. eigenvalues --  -19.34686 -19.29477 -19.29446 -19.28172 -14.58054
 Alpha  occ. eigenvalues --  -14.57397 -14.57362 -10.61269 -10.60791 -10.57496
 Alpha  occ. eigenvalues --  -10.57455 -10.56585 -10.56208 -10.51431 -10.51385
 Alpha  occ. eigenvalues --  -10.51380 -10.51225 -10.50573 -10.48942 -10.42748
 Alpha  occ. eigenvalues --   -1.45143  -1.44456  -1.43935  -1.43863  -1.41595
 Alpha  occ. eigenvalues --   -1.41473  -1.37544  -1.37526  -1.35635  -1.35597
 Alpha  occ. eigenvalues --   -1.35432  -1.35291  -1.34676  -1.34642  -1.34451
 Alpha  occ. eigenvalues --   -1.34161  -1.34037  -1.33853  -1.33812  -1.28290
 Alpha  occ. eigenvalues --   -1.23242  -1.22723  -1.22307  -1.22038  -1.14907
 Alpha  occ. eigenvalues --   -1.13148  -1.12933  -0.97232  -0.95521  -0.95127
 Alpha  occ. eigenvalues --   -0.89274  -0.88556  -0.88093  -0.84305  -0.83657
 Alpha  occ. eigenvalues --   -0.83136  -0.82522  -0.80478  -0.79844  -0.77991
 Alpha  occ. eigenvalues --   -0.76430  -0.75325  -0.74744  -0.74192  -0.73528
 Alpha  occ. eigenvalues --   -0.73254  -0.73195  -0.72601  -0.72339  -0.71701
 Alpha  occ. eigenvalues --   -0.71039  -0.70921  -0.70687  -0.70272  -0.70047
 Alpha  occ. eigenvalues --   -0.69707  -0.69589  -0.67926  -0.67494  -0.66963
 Alpha  occ. eigenvalues --   -0.66259  -0.65985  -0.63285  -0.61834  -0.61162
 Alpha  occ. eigenvalues --   -0.60951  -0.60859  -0.60051  -0.59539  -0.59488
 Alpha  occ. eigenvalues --   -0.59165  -0.58987  -0.58919  -0.58737  -0.58279
 Alpha  occ. eigenvalues --   -0.58025  -0.57934  -0.57471  -0.57071  -0.56899
 Alpha  occ. eigenvalues --   -0.56705  -0.56518  -0.56371  -0.56144  -0.55820
 Alpha  occ. eigenvalues --   -0.55716  -0.55455  -0.55016  -0.54791  -0.54525
 Alpha  occ. eigenvalues --   -0.54321  -0.54044  -0.53888  -0.53739  -0.53485
 Alpha  occ. eigenvalues --   -0.53045  -0.52734  -0.52531  -0.52518  -0.52391
 Alpha  occ. eigenvalues --   -0.51954  -0.51638  -0.51601  -0.51159  -0.50852
 Alpha  occ. eigenvalues --   -0.50713  -0.50410  -0.49815  -0.47708  -0.46970
 Alpha  occ. eigenvalues --   -0.46373  -0.45036  -0.44374  -0.44146  -0.42935
 Alpha  occ. eigenvalues --   -0.42394  -0.40628
 Alpha virt. eigenvalues --   -0.04487  -0.04043   0.01237   0.03022   0.03918
 Alpha virt. eigenvalues --    0.04129   0.05568   0.06277   0.08645   0.09284
 Alpha virt. eigenvalues --    0.09822   0.10806   0.11926   0.13032   0.13915

  Beta  occ. eigenvalues --  -24.86613 -24.85987 -24.85831 -24.85682 -24.85562
  Beta  occ. eigenvalues --  -24.85389 -24.85339 -24.85283 -24.85104 -24.84990
  Beta  occ. eigenvalues --  -24.84929 -24.84869 -24.84699 -24.84603 -24.84585
  Beta  occ. eigenvalues --  -24.84511 -24.84481 -24.84361 -19.48783 -19.34998
  Beta  occ. eigenvalues --  -19.34686 -19.29430 -19.29400 -19.28169 -14.58061
  Beta  occ. eigenvalues --  -14.57398 -14.57362 -10.61269 -10.60791 -10.57496
  Beta  occ. eigenvalues --  -10.57455 -10.56585 -10.56208 -10.51434 -10.51388
  Beta  occ. eigenvalues --  -10.51380 -10.51225 -10.50573 -10.48945 -10.42752
  Beta  occ. eigenvalues --   -1.45143  -1.44456  -1.43935  -1.43863  -1.41594
  Beta  occ. eigenvalues --   -1.41471  -1.37544  -1.37525  -1.35635  -1.35434
  Beta  occ. eigenvalues --   -1.35292  -1.34676  -1.34642  -1.34451  -1.34161
  Beta  occ. eigenvalues --   -1.34037  -1.33853  -1.33811  -1.31363  -1.28032
  Beta  occ. eigenvalues --   -1.23175  -1.22653  -1.22299  -1.22037  -1.14828
  Beta  occ. eigenvalues --   -1.13021  -1.12909  -0.96956  -0.95443  -0.94870
  Beta  occ. eigenvalues --   -0.89089  -0.88513  -0.87035  -0.84274  -0.83386
  Beta  occ. eigenvalues --   -0.82808  -0.82509  -0.80282  -0.79674  -0.77967
  Beta  occ. eigenvalues --   -0.76367  -0.75294  -0.74569  -0.73901  -0.73247
  Beta  occ. eigenvalues --   -0.72519  -0.72397  -0.71963  -0.71692  -0.70975
  Beta  occ. eigenvalues --   -0.70789  -0.70647  -0.70431  -0.69995  -0.69698
  Beta  occ. eigenvalues --   -0.69586  -0.67931  -0.67518  -0.67007  -0.66549
  Beta  occ. eigenvalues --   -0.66169  -0.65875  -0.62525  -0.61816  -0.61085
  Beta  occ. eigenvalues --   -0.60705  -0.60039  -0.59857  -0.59500  -0.59152
  Beta  occ. eigenvalues --   -0.59039  -0.58951  -0.58827  -0.58702  -0.58240
  Beta  occ. eigenvalues --   -0.57958  -0.57508  -0.57428  -0.56961  -0.56861
  Beta  occ. eigenvalues --   -0.56597  -0.56430  -0.56339  -0.56088  -0.55778
  Beta  occ. eigenvalues --   -0.55447  -0.55012  -0.54908  -0.54519  -0.54346
  Beta  occ. eigenvalues --   -0.54039  -0.53873  -0.53749  -0.53484  -0.53042
  Beta  occ. eigenvalues --   -0.52732  -0.52526  -0.52516  -0.52390  -0.51949
  Beta  occ. eigenvalues --   -0.51638  -0.51599  -0.51157  -0.50851  -0.50711
  Beta  occ. eigenvalues --   -0.50409  -0.49813  -0.47704  -0.46961  -0.46341
  Beta  occ. eigenvalues --   -0.44826  -0.44299  -0.43929  -0.42855  -0.42379
  Beta  occ. eigenvalues --   -0.40520
  Beta virt. eigenvalues --   -0.27877  -0.04461  -0.03943   0.01497   0.03040
  Beta virt. eigenvalues --    0.04083   0.04248   0.05601   0.06412   0.09113
  Beta virt. eigenvalues --    0.09727   0.10486   0.11185   0.12070   0.13118

 Mulliken charges and spin densities:
               1          2
     1  C   -0.175912  -0.017359
     2  O   -0.122319   0.754574
     3  C    0.115368  -0.020567
     4  N   -0.620132   0.001355
     5  C    0.873466  -0.002312
     6  O   -0.476878   0.015649
     7  N   -0.642482   0.000107
     8  C    0.765085  -0.000104
     9  F   -0.264694   0.000043
    10  F   -0.242129   0.000317
    11  C    0.439071   0.000006
    12  F   -0.270248   0.000008
    13  O   -0.490188  -0.000003
    14  C    0.980447   0.000000
    15  F   -0.233284   0.000000
    16  F   -0.238513   0.000000
    17  F   -0.235184   0.000003
    18  C    0.819903  -0.000028
    19  F   -0.253887   0.000000
    20  F   -0.249022  -0.000003
    21  F   -0.241419   0.000003
    22  C    0.864046  -0.000160
    23  O   -0.453880   0.001141
    24  N   -0.651201   0.000095
    25  C    0.764143  -0.000069
    26  F   -0.260799   0.000033
    27  F   -0.242347   0.000305
    28  C    0.440530   0.000002
    29  F   -0.248708   0.000014
    30  O   -0.511057  -0.000005
    31  C    1.001996   0.000000
    32  F   -0.238077   0.000000
    33  F   -0.239280   0.000000
    34  F   -0.244692   0.000000
    35  C    0.808710  -0.000039
    36  F   -0.247389   0.000001
    37  F   -0.258194  -0.000002
    38  F   -0.234063   0.000018
    39  C    0.867127  -0.002156
    40  O   -0.475249   0.015590
    41  H    0.239008  -0.001242
    42  H    0.260485   0.070419
    43  H    0.259930   0.070219
    44  H    0.281430   0.057314
    45  H    0.280483   0.056833
 Sum of Mulliken charges =   1.00000   1.00000

 Dipole moment (field-independent basis, Debye):
    X=              0.0960    Y=             22.2486    Z=             -0.3732  Tot=             22.2519
 Quadrupole moment (field-independent basis, Debye-Ang):
   XX=           -214.4791   YY=           -105.5209   ZZ=           -207.0267
   XY=             -3.5488   XZ=              2.7124   YZ=             -1.7799

 Normal termination of Gaussian 09 at Sun Mar  3 18:02:37 2024.
