 Gaussian 09, Revision D.01,
 Gaussian 09:  ES64L-G09RevD.01 24-Apr-2013

 ----------------------------------------------------------------------
 #p CAM-B3LYP/6-31G(d,p) SCRF=(PCM,Solvent=Generic,Read) NoSymm out=wfn
 ----------------------------------------------------------------------

 -------------------
 Title A899021202_p1
 -------------------
 Symbolic Z-matrix:
 Charge =  1 Multiplicity = 2

                          Input orientation:
 ---------------------------------------------------------------------
 Center     Atomic      Atomic             Coordinates (Angstroms)
 Number     Number       Type             X           Y           Z
 ---------------------------------------------------------------------
      1          6           0        2.454641   -3.856263    0.565148
      2          6           0        1.328629   -3.433227   -0.019053
      3          7           0        0.600049   -2.292653    0.289620
      4          6           0        0.977111   -1.383488    1.343094
      5          7           0        0.650991   -0.047307    0.957535
      6          6           0        1.586423    1.031016    1.229080
      7          9           0        0.900336    2.061937    1.780596
      8          9           0        2.423756    0.606249    2.220943
      9          6           0        2.431056    1.476595    0.011126
     10          9           0        1.617659    1.917039   -0.988145
     11          8           0        3.097367    0.308418   -0.500483
     12          6           0        4.056275    0.616442   -1.479136
     13          9           0        3.605216    1.540819   -2.338377
     14          9           0        5.172768    1.050843   -0.871840
     15          9           0        4.347313   -0.509128   -2.156403
     16          6           0        3.318267    2.619286    0.518327
     17          9           0        2.615494    3.627988    1.075851
     18          9           0        4.206046    2.185462    1.443427
     19          9           0        4.043356    3.170014   -0.484710
     20          6           0       -0.514139    0.184577    0.284204
     21          8           0       -0.802291    1.298820   -0.133360
     22          7           0       -1.297763   -0.920686    0.082452
     23          6           0       -2.645691   -0.720645   -0.436427
     24          9           0       -2.588671   -0.278905   -1.714594
     25          9           0       -3.249417   -1.948620   -0.501970
     26          6           0       -3.587363    0.154256    0.447037
     27          9           0       -3.594932   -0.441877    1.698357
     28          8           0       -3.182901    1.489610    0.753399
     29          6           0       -3.444471    2.431888   -0.260402
     30          9           0       -2.736759    3.549169   -0.018058
     31          9           0       -4.751243    2.745993   -0.243916
     32          9           0       -3.122527    1.951262   -1.467313
     33          6           0       -5.009391    0.010335   -0.121702
     34          9           0       -5.459536   -1.263611   -0.110485
     35          9           0       -5.108946    0.459353   -1.390736
     36          9           0       -5.892368    0.725814    0.621435
     37          6           0       -0.636375   -2.059533   -0.341752
     38          8           0       -1.062690   -2.799998   -1.226535
     39          1           0        2.954805   -3.353384    1.382082
     40          1           0        2.919517   -4.776380    0.218129
     41          1           0        0.915800   -4.040701   -0.827218
     42          1           0        2.047715   -1.451124    1.543762
     43          1           0        0.416886   -1.635655    2.250804
 ---------------------------------------------------------------------

 SCF Done:  E(UCAM-B3LYP) =  -2759.59257611     A.U. after   19 cycles

 Alpha  occ. eigenvalues --  -24.87319 -24.86123 -24.86052 -24.85854 -24.85840
 Alpha  occ. eigenvalues --  -24.85641 -24.85640 -24.85604 -24.85358 -24.85227
 Alpha  occ. eigenvalues --  -24.85220 -24.85017 -24.85012 -24.84719 -24.84661
 Alpha  occ. eigenvalues --  -24.84652 -24.84464 -24.84103 -19.36204 -19.34636
 Alpha  occ. eigenvalues --  -19.32062 -19.27691 -14.63188 -14.57216 -14.55000
 Alpha  occ. eigenvalues --  -10.62166 -10.60900 -10.57565 -10.57081 -10.56355
 Alpha  occ. eigenvalues --  -10.56339 -10.52701 -10.51659 -10.51556 -10.49693
 Alpha  occ. eigenvalues --  -10.45319 -10.44515 -10.41570  -1.45650  -1.44632
 Alpha  occ. eigenvalues --   -1.43990  -1.43307  -1.42493  -1.41871  -1.38442
 Alpha  occ. eigenvalues --   -1.37280  -1.35939  -1.35824  -1.35612  -1.35434
 Alpha  occ. eigenvalues --   -1.34722  -1.34470  -1.34386  -1.34193  -1.34053
 Alpha  occ. eigenvalues --   -1.33417  -1.28218  -1.23507  -1.23165  -1.22096
 Alpha  occ. eigenvalues --   -1.19210  -1.13904  -1.12303  -1.00033  -0.96527
 Alpha  occ. eigenvalues --   -0.95396  -0.92111  -0.89597  -0.87046  -0.84713
 Alpha  occ. eigenvalues --   -0.83900  -0.82865  -0.80963  -0.78761  -0.77648
 Alpha  occ. eigenvalues --   -0.77031  -0.75632  -0.75430  -0.74653  -0.73602
 Alpha  occ. eigenvalues --   -0.73339  -0.72913  -0.72382  -0.72065  -0.71690
 Alpha  occ. eigenvalues --   -0.70933  -0.70779  -0.70327  -0.69988  -0.69880
 Alpha  occ. eigenvalues --   -0.69040  -0.68782  -0.68442  -0.68121  -0.67832
 Alpha  occ. eigenvalues --   -0.66186  -0.64752  -0.63438  -0.62802  -0.61408
 Alpha  occ. eigenvalues --   -0.61043  -0.60605  -0.60598  -0.59643  -0.59309
 Alpha  occ. eigenvalues --   -0.59262  -0.58975  -0.58627  -0.58443  -0.58299
 Alpha  occ. eigenvalues --   -0.57920  -0.57636  -0.57536  -0.57409  -0.56976
 Alpha  occ. eigenvalues --   -0.56556  -0.56393  -0.56276  -0.55976  -0.55714
 Alpha  occ. eigenvalues --   -0.55349  -0.55006  -0.54778  -0.54525  -0.54303
 Alpha  occ. eigenvalues --   -0.54004  -0.53717  -0.53179  -0.53089  -0.52731
 Alpha  occ. eigenvalues --   -0.52657  -0.52558  -0.52346  -0.52165  -0.51603
 Alpha  occ. eigenvalues --   -0.51538  -0.51275  -0.50981  -0.50854  -0.50384
 Alpha  occ. eigenvalues --   -0.49789  -0.48871  -0.47218  -0.46228  -0.45832
 Alpha  occ. eigenvalues --   -0.44304  -0.43440  -0.41701  -0.40875
 Alpha virt. eigenvalues --   -0.07827  -0.01937  -0.01289   0.02943   0.04120
 Alpha virt. eigenvalues --    0.05065   0.05822   0.07696   0.08546   0.10042
 Alpha virt. eigenvalues --    0.11083   0.12016   0.12788   0.13564   0.15066

  Beta  occ. eigenvalues --  -24.87319 -24.86123 -24.86052 -24.85851 -24.85838
  Beta  occ. eigenvalues --  -24.85641 -24.85639 -24.85604 -24.85358 -24.85227
  Beta  occ. eigenvalues --  -24.85220 -24.85017 -24.85012 -24.84719 -24.84661
  Beta  occ. eigenvalues --  -24.84652 -24.84464 -24.84103 -19.36204 -19.34636
  Beta  occ. eigenvalues --  -19.31784 -19.27688 -14.62355 -14.57212 -14.54981
  Beta  occ. eigenvalues --  -10.62166 -10.60900 -10.57565 -10.57081 -10.56353
  Beta  occ. eigenvalues --  -10.56340 -10.52818 -10.51659 -10.51556 -10.49697
  Beta  occ. eigenvalues --  -10.45308 -10.44546 -10.40724  -1.45650  -1.44631
  Beta  occ. eigenvalues --   -1.43990  -1.43307  -1.42492  -1.41868  -1.38442
  Beta  occ. eigenvalues --   -1.37280  -1.35939  -1.35823  -1.35612  -1.35432
  Beta  occ. eigenvalues --   -1.34721  -1.34469  -1.34385  -1.34192  -1.34053
  Beta  occ. eigenvalues --   -1.33417  -1.27756  -1.23500  -1.22983  -1.22067
  Beta  occ. eigenvalues --   -1.18272  -1.13762  -1.11992  -0.98324  -0.96323
  Beta  occ. eigenvalues --   -0.95288  -0.91904  -0.89373  -0.86633  -0.84691
  Beta  occ. eigenvalues --   -0.83891  -0.82664  -0.80782  -0.78717  -0.77466
  Beta  occ. eigenvalues --   -0.76928  -0.75529  -0.75377  -0.74544  -0.73577
  Beta  occ. eigenvalues --   -0.73241  -0.72827  -0.72340  -0.71881  -0.71564
  Beta  occ. eigenvalues --   -0.70917  -0.70769  -0.70094  -0.69912  -0.69538
  Beta  occ. eigenvalues --   -0.69021  -0.68598  -0.68414  -0.67659  -0.67572
  Beta  occ. eigenvalues --   -0.66148  -0.64518  -0.62900  -0.62778  -0.61372
  Beta  occ. eigenvalues --   -0.60674  -0.60292  -0.60081  -0.59551  -0.59249
  Beta  occ. eigenvalues --   -0.59178  -0.58871  -0.58569  -0.58372  -0.58215
  Beta  occ. eigenvalues --   -0.57895  -0.57627  -0.57530  -0.56970  -0.56905
  Beta  occ. eigenvalues --   -0.56529  -0.56308  -0.56268  -0.55787  -0.55568
  Beta  occ. eigenvalues --   -0.55302  -0.54995  -0.54726  -0.54493  -0.54293
  Beta  occ. eigenvalues --   -0.53977  -0.53670  -0.53172  -0.53085  -0.52665
  Beta  occ. eigenvalues --   -0.52623  -0.52344  -0.52269  -0.51622  -0.51572
  Beta  occ. eigenvalues --   -0.51275  -0.51010  -0.50936  -0.50406  -0.49789
  Beta  occ. eigenvalues --   -0.49213  -0.48675  -0.47182  -0.45742  -0.45644
  Beta  occ. eigenvalues --   -0.43272  -0.41539  -0.40827
  Beta virt. eigenvalues --   -0.23019  -0.04927  -0.01362   0.00693   0.02999
  Beta virt. eigenvalues --    0.04143   0.05189   0.05883   0.07992   0.08688
  Beta virt. eigenvalues --    0.10325   0.11336   0.12421   0.12970   0.13642

 Mulliken charges and spin densities:
               1          2
     1  C   -0.155516   0.605407
     2  C    0.230747   0.025556
     3  N   -0.463430   0.359843
     4  C    0.092481  -0.021360
     5  N   -0.611932   0.005404
     6  C    0.758949   0.000971
     7  F   -0.239679   0.000327
     8  F   -0.262039   0.000120
     9  C    0.434010  -0.000059
    10  F   -0.247581  -0.000010
    11  O   -0.530927   0.000052
    12  C    0.999219  -0.000012
    13  F   -0.234292   0.000006
    14  F   -0.239500   0.000000
    15  F   -0.238898   0.000009
    16  C    0.821440   0.000017
    17  F   -0.238907  -0.000001
    18  F   -0.247867   0.000001
    19  F   -0.253696   0.000009
    20  C    0.849304  -0.000687
    21  O   -0.471716   0.001289
    22  N   -0.649703   0.003978
    23  C    0.785267  -0.000590
    24  F   -0.234186   0.000363
    25  F   -0.264326   0.000475
    26  C    0.424285  -0.000024
    27  F   -0.278974  -0.000006
    28  O   -0.499051   0.000025
    29  C    1.017687  -0.000006
    30  F   -0.241947   0.000000
    31  F   -0.245471   0.000001
    32  F   -0.244854   0.000007
    33  C    0.808242  -0.000013
    34  F   -0.241860   0.000009
    35  F   -0.244489   0.000001
    36  F   -0.255385  -0.000006
    37  C    0.851246  -0.064091
    38  O   -0.408919   0.110391
    39  H    0.221884  -0.024209
    40  H    0.242535  -0.026944
    41  H    0.254696  -0.001676
    42  H    0.207839   0.004786
    43  H    0.245313   0.020647
 Sum of Mulliken charges =   1.00000   1.00000

 Dipole moment (field-independent basis, Debye):
    X=              9.3568    Y=            -15.0753    Z=              4.3349  Tot=             18.2649
 Quadrupole moment (field-independent basis, Debye-Ang):
   XX=           -182.4288   YY=           -151.6523   ZZ=           -193.3861
   XY=            -29.4911   XZ=              3.4343   YZ=            -10.5883

 Normal termination of Gaussian 09 at Sun Mar  3 18:01:36 2024.
