 Gaussian 09, Revision D.01,
 Gaussian 09:  ES64L-G09RevD.01 24-Apr-2013

 ----------------------------------------------------------------------
 #p CAM-B3LYP/6-31G(d,p) SCRF=(PCM,Solvent=Generic,Read) NoSymm out=wfn
 ----------------------------------------------------------------------

 ------------------
 Title A899021202_0
 ------------------
 Symbolic Z-matrix:
 Charge =  0 Multiplicity = 1

                          Input orientation:
 ---------------------------------------------------------------------
 Center     Atomic      Atomic             Coordinates (Angstroms)
 Number     Number       Type             X           Y           Z
 ---------------------------------------------------------------------
      1          6           0        2.454641   -3.856263    0.565148
      2          6           0        1.328629   -3.433227   -0.019053
      3          7           0        0.600049   -2.292653    0.289620
      4          6           0        0.977111   -1.383488    1.343094
      5          7           0        0.650991   -0.047307    0.957535
      6          6           0        1.586423    1.031016    1.229080
      7          9           0        0.900336    2.061937    1.780596
      8          9           0        2.423756    0.606249    2.220943
      9          6           0        2.431056    1.476595    0.011126
     10          9           0        1.617659    1.917039   -0.988145
     11          8           0        3.097367    0.308418   -0.500483
     12          6           0        4.056275    0.616442   -1.479136
     13          9           0        3.605216    1.540819   -2.338377
     14          9           0        5.172768    1.050843   -0.871840
     15          9           0        4.347313   -0.509128   -2.156403
     16          6           0        3.318267    2.619286    0.518327
     17          9           0        2.615494    3.627988    1.075851
     18          9           0        4.206046    2.185462    1.443427
     19          9           0        4.043356    3.170014   -0.484710
     20          6           0       -0.514139    0.184577    0.284204
     21          8           0       -0.802291    1.298820   -0.133360
     22          7           0       -1.297763   -0.920686    0.082452
     23          6           0       -2.645691   -0.720645   -0.436427
     24          9           0       -2.588671   -0.278905   -1.714594
     25          9           0       -3.249417   -1.948620   -0.501970
     26          6           0       -3.587363    0.154256    0.447037
     27          9           0       -3.594932   -0.441877    1.698357
     28          8           0       -3.182901    1.489610    0.753399
     29          6           0       -3.444471    2.431888   -0.260402
     30          9           0       -2.736759    3.549169   -0.018058
     31          9           0       -4.751243    2.745993   -0.243916
     32          9           0       -3.122527    1.951262   -1.467313
     33          6           0       -5.009391    0.010335   -0.121702
     34          9           0       -5.459536   -1.263611   -0.110485
     35          9           0       -5.108946    0.459353   -1.390736
     36          9           0       -5.892368    0.725814    0.621435
     37          6           0       -0.636375   -2.059533   -0.341752
     38          8           0       -1.062690   -2.799998   -1.226535
     39          1           0        2.954805   -3.353384    1.382082
     40          1           0        2.919517   -4.776380    0.218129
     41          1           0        0.915800   -4.040701   -0.827218
     42          1           0        2.047715   -1.451124    1.543762
     43          1           0        0.416886   -1.635655    2.250804
 ---------------------------------------------------------------------

 SCF Done:  E(RCAM-B3LYP) =  -2759.85673717     A.U. after   13 cycles

 Alpha  occ. eigenvalues --  -24.84021 -24.84015 -24.83714 -24.83562 -24.83496
 Alpha  occ. eigenvalues --  -24.83279 -24.83200 -24.83061 -24.83009 -24.82936
 Alpha  occ. eigenvalues --  -24.82871 -24.82824 -24.82806 -24.82784 -24.82780
 Alpha  occ. eigenvalues --  -24.82362 -24.82318 -24.82213 -19.33446 -19.32368
 Alpha  occ. eigenvalues --  -19.23176 -19.22839 -14.51361 -14.49862 -14.48678
 Alpha  occ. eigenvalues --  -10.59842 -10.59025 -10.55488 -10.55086 -10.52827
 Alpha  occ. eigenvalues --  -10.52591 -10.48932 -10.48914 -10.45008 -10.44381
 Alpha  occ. eigenvalues --  -10.37288 -10.31809 -10.26405  -1.43469  -1.42767
 Alpha  occ. eigenvalues --   -1.41922  -1.41398  -1.39464  -1.38540  -1.35873
 Alpha  occ. eigenvalues --   -1.34842  -1.33808  -1.33522  -1.33268  -1.33060
 Alpha  occ. eigenvalues --   -1.32823  -1.32324  -1.32313  -1.32111  -1.31886
 Alpha  occ. eigenvalues --   -1.31177  -1.21166  -1.20774  -1.19910  -1.16323
 Alpha  occ. eigenvalues --   -1.10602  -1.07760  -1.04640  -0.93669  -0.92529
 Alpha  occ. eigenvalues --   -0.87276  -0.85586  -0.84426  -0.82160  -0.81935
 Alpha  occ. eigenvalues --   -0.80646  -0.77971  -0.76231  -0.75606  -0.73866
 Alpha  occ. eigenvalues --   -0.73289  -0.72594  -0.71709  -0.70952  -0.70702
 Alpha  occ. eigenvalues --   -0.70510  -0.69518  -0.69291  -0.68949  -0.68508
 Alpha  occ. eigenvalues --   -0.68342  -0.67881  -0.67684  -0.66757  -0.66099
 Alpha  occ. eigenvalues --   -0.65230  -0.65105  -0.64660  -0.63893  -0.62212
 Alpha  occ. eigenvalues --   -0.60336  -0.59181  -0.58927  -0.58039  -0.57718
 Alpha  occ. eigenvalues --   -0.57289  -0.57271  -0.56697  -0.56466  -0.56377
 Alpha  occ. eigenvalues --   -0.55992  -0.55760  -0.55349  -0.55170  -0.55102
 Alpha  occ. eigenvalues --   -0.54848  -0.54290  -0.54181  -0.54020  -0.53441
 Alpha  occ. eigenvalues --   -0.53206  -0.53038  -0.52792  -0.52751  -0.52461
 Alpha  occ. eigenvalues --   -0.52003  -0.51659  -0.51388  -0.51163  -0.50875
 Alpha  occ. eigenvalues --   -0.50819  -0.50622  -0.50563  -0.50420  -0.50202
 Alpha  occ. eigenvalues --   -0.50068  -0.49640  -0.49531  -0.49382  -0.49209
 Alpha  occ. eigenvalues --   -0.48834  -0.48379  -0.48195  -0.47630  -0.46177
 Alpha  occ. eigenvalues --   -0.45085  -0.44358  -0.42915  -0.41596  -0.39739
 Alpha  occ. eigenvalues --   -0.37212  -0.36626  -0.36103  -0.29849
 Alpha virt. eigenvalues --    0.02217   0.03111   0.05887   0.06851   0.08432
 Alpha virt. eigenvalues --    0.09357   0.09657   0.13418   0.14420   0.15682
 Alpha virt. eigenvalues --    0.16920   0.17622   0.17968   0.18223   0.18551

 Mulliken charges:
               1
     1  C   -0.317246
     2  C    0.145842
     3  N   -0.541813
     4  C    0.117584
     5  N   -0.600284
     6  C    0.751240
     7  F   -0.250649
     8  F   -0.268213
     9  C    0.432091
    10  F   -0.251723
    11  O   -0.518453
    12  C    0.996742
    13  F   -0.238794
    14  F   -0.244089
    15  F   -0.238296
    16  C    0.815265
    17  F   -0.242855
    18  F   -0.249939
    19  F   -0.258323
    20  C    0.827413
    21  O   -0.505869
    22  N   -0.649762
    23  C    0.781625
    24  F   -0.245129
    25  F   -0.270496
    26  C    0.423344
    27  F   -0.282979
    28  O   -0.500622
    29  C    1.015163
    30  F   -0.245296
    31  F   -0.249798
    32  F   -0.244513
    33  C    0.802498
    34  F   -0.243866
    35  F   -0.247521
    36  F   -0.260778
    37  C    0.801990
    38  O   -0.501760
    39  H    0.114766
    40  H    0.129405
    41  H    0.159897
    42  H    0.174626
    43  H    0.179572
 Sum of Mulliken charges =   0.00000

 Dipole moment (field-independent basis, Debye):
    X=              4.0485    Y=             -2.0972    Z=              3.1282  Tot=              5.5294
 Quadrupole moment (field-independent basis, Debye-Ang):
   XX=           -206.6701   YY=           -205.3817   ZZ=           -200.8009
   XY=             -7.9402   XZ=             -0.5769   YZ=             -7.3867

 Normal termination of Gaussian 09 at Sun Mar  3 18:00:57 2024.
