 Gaussian 09, Revision D.01,
 Gaussian 09:  ES64L-G09RevD.01 24-Apr-2013

 ----------------------------------------------------------------------
 #p CAM-B3LYP/6-31G(d,p) SCRF=(PCM,Solvent=Generic,Read) NoSymm out=wfn
 ----------------------------------------------------------------------

 ------------------
 Title A903371602_0
 ------------------
 Symbolic Z-matrix:
 Charge =  0 Multiplicity = 1

                          Input orientation:
 ---------------------------------------------------------------------
 Center     Atomic      Atomic             Coordinates (Angstroms)
 Number     Number       Type             X           Y           Z
 ---------------------------------------------------------------------
      1          6           0       -3.724949   -1.523986   -1.481066
      2          6           0       -4.202502   -0.486749   -0.476404
      3          6           0       -3.302781   -0.371569    0.760326
      4          7           0       -1.966417    0.147593    0.462713
      5          6           0       -1.834492    1.502927    0.241630
      6          8           0       -2.781311    2.283162    0.350737
      7          7           0       -0.583810    1.922109   -0.153230
      8          6           0       -0.432359    3.305191   -0.572305
      9          6           0        0.448758    1.044657   -0.398604
     10          8           0        1.400078    1.371437   -1.102465
     11          7           0        0.334018   -0.196436    0.161406
     12          6           0        1.436271   -1.150145    0.063952
     13          9           0        1.319549   -1.839084   -1.104164
     14          9           0        1.253944   -2.067201    1.065416
     15          6           0        2.893523   -0.634050    0.221353
     16          9           0        3.309806   -0.037544   -0.932846
     17          8           0        2.922138    0.364324    1.254798
     18          6           0        4.227379    0.772939    1.576183
     19          9           0        4.786662   -0.145333    2.381314
     20          9           0        4.151035    1.938484    2.245810
     21          9           0        4.980949    0.947557    0.481683
     22          6           0        3.756791   -1.883961    0.451942
     23          9           0        3.535521   -2.438713    1.665627
     24          9           0        3.554709   -2.840402   -0.479665
     25          9           0        5.078353   -1.581419    0.408292
     26          6           0       -0.915966   -0.743666    0.341914
     27          8           0       -1.111783   -1.958852    0.367804
     28          1           0       -4.446768   -1.614286   -2.299186
     29          1           0       -3.621610   -2.507571   -1.012345
     30          1           0       -2.762177   -1.242606   -1.918035
     31          1           0       -5.210756   -0.762868   -0.145421
     32          1           0       -4.288767    0.482782   -0.979657
     33          1           0       -3.779772    0.309268    1.476250
     34          1           0       -3.228899   -1.344777    1.259041
     35          1           0        0.614608    3.617963   -0.515858
     36          1           0       -0.776622    3.392242   -1.607815
     37          1           0       -1.032350    3.968582    0.057850
 ---------------------------------------------------------------------

 SCF Done:  E(RCAM-B3LYP) =  -1788.39511489     A.U. after   13 cycles

 Alpha  occ. eigenvalues --  -24.83734 -24.83501 -24.83386 -24.83350 -24.82696
 Alpha  occ. eigenvalues --  -24.82644 -24.82526 -24.82384 -24.81825 -19.33119
 Alpha  occ. eigenvalues --  -19.23308 -19.22926 -19.22479 -14.51788 -14.49400
 Alpha  occ. eigenvalues --  -14.49259 -10.59586 -10.55271 -10.52886 -10.48908
 Alpha  occ. eigenvalues --  -10.44832 -10.44746 -10.43602 -10.30821 -10.30734
 Alpha  occ. eigenvalues --  -10.26146 -10.24575  -1.43195  -1.41605  -1.38469
 Alpha  occ. eigenvalues --   -1.34974  -1.33468  -1.33240  -1.32603  -1.32039
 Alpha  occ. eigenvalues --   -1.31395  -1.21593  -1.20466  -1.16645  -1.16131
 Alpha  occ. eigenvalues --   -1.08579  -1.06111  -1.04678  -0.93168  -0.88039
 Alpha  occ. eigenvalues --   -0.84799  -0.82924  -0.81470  -0.80347  -0.77790
 Alpha  occ. eigenvalues --   -0.75375  -0.74841  -0.72855  -0.72611  -0.70959
 Alpha  occ. eigenvalues --   -0.70360  -0.69663  -0.68696  -0.68065  -0.66973
 Alpha  occ. eigenvalues --   -0.66554  -0.65469  -0.64859  -0.61525  -0.59991
 Alpha  occ. eigenvalues --   -0.59244  -0.57392  -0.57146  -0.56338  -0.56214
 Alpha  occ. eigenvalues --   -0.55570  -0.55412  -0.54818  -0.54715  -0.54345
 Alpha  occ. eigenvalues --   -0.54065  -0.53595  -0.52906  -0.52862  -0.52553
 Alpha  occ. eigenvalues --   -0.52001  -0.51649  -0.51455  -0.50711  -0.50285
 Alpha  occ. eigenvalues --   -0.50187  -0.50155  -0.49655  -0.49028  -0.48986
 Alpha  occ. eigenvalues --   -0.48338  -0.47672  -0.47504  -0.46605  -0.45791
 Alpha  occ. eigenvalues --   -0.44100  -0.42157  -0.41138  -0.40634  -0.39625
 Alpha  occ. eigenvalues --   -0.38621  -0.37587  -0.35641  -0.35007  -0.34562
 Alpha virt. eigenvalues --    0.01315   0.02834   0.07248   0.08051   0.11368
 Alpha virt. eigenvalues --    0.14325   0.16357   0.17166   0.17345   0.17485
 Alpha virt. eigenvalues --    0.18059   0.19072   0.19198   0.19833   0.20935

 Mulliken charges:
               1
     1  C   -0.315552
     2  C   -0.189609
     3  C   -0.060606
     4  N   -0.572967
     5  C    0.822939
     6  O   -0.526553
     7  N   -0.561895
     8  C   -0.181346
     9  C    0.811688
    10  O   -0.499487
    11  N   -0.635184
    12  C    0.798693
    13  F   -0.256186
    14  F   -0.272757
    15  C    0.410645
    16  F   -0.253029
    17  O   -0.518508
    18  C    0.995024
    19  F   -0.244486
    20  F   -0.240959
    21  F   -0.237974
    22  C    0.814494
    23  F   -0.247550
    24  F   -0.242337
    25  F   -0.260256
    26  C    0.833864
    27  O   -0.506372
    28  H    0.107817
    29  H    0.116229
    30  H    0.103608
    31  H    0.115638
    32  H    0.119464
    33  H    0.145391
    34  H    0.151510
    35  H    0.159271
    36  H    0.154576
    37  H    0.162764
 Sum of Mulliken charges =   0.00000

 Dipole moment (field-independent basis, Debye):
    X=             -1.8540    Y=              2.1292    Z=              0.5755  Tot=              2.8813
 Quadrupole moment (field-independent basis, Debye-Ang):
   XX=           -149.8723   YY=           -151.8330   ZZ=           -147.2203
   XY=              5.6225   XZ=              2.5284   YZ=             -0.0930

 Normal termination of Gaussian 09 at Sun Mar  3 17:59:03 2024.
