 Gaussian 09, Revision D.01,
 Gaussian 09:  ES64L-G09RevD.01 24-Apr-2013

 ----------------------------------------------------------------------
 #p CAM-B3LYP/6-31G(d,p) SCRF=(PCM,Solvent=Generic,Read) NoSymm out=wfn
 ----------------------------------------------------------------------

 -------------------
 Title A903371602_p1
 -------------------
 Symbolic Z-matrix:
 Charge =  1 Multiplicity = 2

                          Input orientation:
 ---------------------------------------------------------------------
 Center     Atomic      Atomic             Coordinates (Angstroms)
 Number     Number       Type             X           Y           Z
 ---------------------------------------------------------------------
      1          6           0       -3.724949   -1.523986   -1.481066
      2          6           0       -4.202502   -0.486749   -0.476404
      3          6           0       -3.302781   -0.371569    0.760326
      4          7           0       -1.966417    0.147593    0.462713
      5          6           0       -1.834492    1.502927    0.241630
      6          8           0       -2.781311    2.283162    0.350737
      7          7           0       -0.583810    1.922109   -0.153230
      8          6           0       -0.432359    3.305191   -0.572305
      9          6           0        0.448758    1.044657   -0.398604
     10          8           0        1.400078    1.371437   -1.102465
     11          7           0        0.334018   -0.196436    0.161406
     12          6           0        1.436271   -1.150145    0.063952
     13          9           0        1.319549   -1.839084   -1.104164
     14          9           0        1.253944   -2.067201    1.065416
     15          6           0        2.893523   -0.634050    0.221353
     16          9           0        3.309806   -0.037544   -0.932846
     17          8           0        2.922138    0.364324    1.254798
     18          6           0        4.227379    0.772939    1.576183
     19          9           0        4.786662   -0.145333    2.381314
     20          9           0        4.151035    1.938484    2.245810
     21          9           0        4.980949    0.947557    0.481683
     22          6           0        3.756791   -1.883961    0.451942
     23          9           0        3.535521   -2.438713    1.665627
     24          9           0        3.554709   -2.840402   -0.479665
     25          9           0        5.078353   -1.581419    0.408292
     26          6           0       -0.915966   -0.743666    0.341914
     27          8           0       -1.111783   -1.958852    0.367804
     28          1           0       -4.446768   -1.614286   -2.299186
     29          1           0       -3.621610   -2.507571   -1.012345
     30          1           0       -2.762177   -1.242606   -1.918035
     31          1           0       -5.210756   -0.762868   -0.145421
     32          1           0       -4.288767    0.482782   -0.979657
     33          1           0       -3.779772    0.309268    1.476250
     34          1           0       -3.228899   -1.344777    1.259041
     35          1           0        0.614608    3.617963   -0.515858
     36          1           0       -0.776622    3.392242   -1.607815
     37          1           0       -1.032350    3.968582    0.057850
 ---------------------------------------------------------------------

 SCF Done:  E(UCAM-B3LYP) =  -1788.08078321     A.U. after   39 cycles

 Alpha  occ. eigenvalues --  -24.86830 -24.86656 -24.85638 -24.85518 -24.85384
 Alpha  occ. eigenvalues --  -24.85201 -24.84797 -24.84748 -24.84698 -19.35996
 Alpha  occ. eigenvalues --  -19.35774 -19.31346 -19.29858 -14.65771 -14.58709
 Alpha  occ. eigenvalues --  -14.57545 -10.61666 -10.57588 -10.57410 -10.54513
 Alpha  occ. eigenvalues --  -10.52175 -10.52035 -10.51140 -10.40140 -10.35439
 Alpha  occ. eigenvalues --  -10.33662 -10.29777  -1.45185  -1.43926  -1.42482
 Alpha  occ. eigenvalues --   -1.37820  -1.35963  -1.35409  -1.35127  -1.34455
 Alpha  occ. eigenvalues --   -1.33970  -1.31324  -1.26157  -1.24351  -1.23080
 Alpha  occ. eigenvalues --   -1.18378  -1.15067  -1.13114  -0.97264  -0.95872
 Alpha  occ. eigenvalues --   -0.90700  -0.90255  -0.87943  -0.84933  -0.83231
 Alpha  occ. eigenvalues --   -0.82214  -0.80506  -0.78664  -0.76148  -0.74992
 Alpha  occ. eigenvalues --   -0.73948  -0.72800  -0.72393  -0.71840  -0.71089
 Alpha  occ. eigenvalues --   -0.70484  -0.69881  -0.68483  -0.67981  -0.67102
 Alpha  occ. eigenvalues --   -0.64647  -0.63219  -0.62993  -0.62608  -0.61792
 Alpha  occ. eigenvalues --   -0.60877  -0.59831  -0.59520  -0.58898  -0.58660
 Alpha  occ. eigenvalues --   -0.58121  -0.58076  -0.57583  -0.57070  -0.56556
 Alpha  occ. eigenvalues --   -0.56230  -0.55957  -0.55043  -0.54958  -0.54313
 Alpha  occ. eigenvalues --   -0.54083  -0.53881  -0.53634  -0.52950  -0.52437
 Alpha  occ. eigenvalues --   -0.52219  -0.51921  -0.51532  -0.51034  -0.50246
 Alpha  occ. eigenvalues --   -0.49421  -0.48269  -0.47463  -0.47340  -0.46611
 Alpha  occ. eigenvalues --   -0.46503  -0.45560  -0.45070  -0.42867  -0.42183
 Alpha virt. eigenvalues --   -0.07218  -0.05204   0.02183   0.03659   0.05314
 Alpha virt. eigenvalues --    0.08749   0.09810   0.11252   0.11866   0.12980
 Alpha virt. eigenvalues --    0.13924   0.14524   0.14799   0.15569   0.15887

  Beta  occ. eigenvalues --  -24.86814 -24.86659 -24.85638 -24.85518 -24.85384
  Beta  occ. eigenvalues --  -24.85200 -24.84797 -24.84746 -24.84698 -19.35774
  Beta  occ. eigenvalues --  -19.35183 -19.31181 -19.29758 -14.64599 -14.58765
  Beta  occ. eigenvalues --  -14.57340 -10.61666 -10.57588 -10.57410 -10.54756
  Beta  occ. eigenvalues --  -10.52301 -10.52034 -10.51180 -10.40082 -10.35437
  Beta  occ. eigenvalues --  -10.33492 -10.29760  -1.45185  -1.43923  -1.42473
  Beta  occ. eigenvalues --   -1.37814  -1.35952  -1.35409  -1.35127  -1.34454
  Beta  occ. eigenvalues --   -1.33968  -1.30343  -1.25270  -1.24006  -1.23064
  Beta  occ. eigenvalues --   -1.16870  -1.14473  -1.12632  -0.97027  -0.95467
  Beta  occ. eigenvalues --   -0.90399  -0.90129  -0.87689  -0.84818  -0.83100
  Beta  occ. eigenvalues --   -0.81864  -0.80371  -0.78572  -0.75998  -0.74866
  Beta  occ. eigenvalues --   -0.73527  -0.72780  -0.72330  -0.71448  -0.70489
  Beta  occ. eigenvalues --   -0.70211  -0.69441  -0.68129  -0.67877  -0.66481
  Beta  occ. eigenvalues --   -0.63795  -0.62684  -0.62622  -0.61493  -0.61189
  Beta  occ. eigenvalues --   -0.60453  -0.59601  -0.59369  -0.58854  -0.58331
  Beta  occ. eigenvalues --   -0.58044  -0.57732  -0.57483  -0.57027  -0.56294
  Beta  occ. eigenvalues --   -0.55994  -0.55402  -0.54958  -0.54703  -0.53991
  Beta  occ. eigenvalues --   -0.53858  -0.53508  -0.52934  -0.52925  -0.52298
  Beta  occ. eigenvalues --   -0.52197  -0.51911  -0.51367  -0.51006  -0.48873
  Beta  occ. eigenvalues --   -0.47827  -0.47478  -0.47095  -0.46763  -0.46148
  Beta  occ. eigenvalues --   -0.45409  -0.44668  -0.42237  -0.40889
  Beta virt. eigenvalues --   -0.28163  -0.06219  -0.04162   0.02886   0.03734
  Beta virt. eigenvalues --    0.05590   0.08957   0.10278   0.11428   0.12001
  Beta virt. eigenvalues --    0.13106   0.14031   0.14521   0.14877   0.15732

 Mulliken charges and spin densities:
               1          2
     1  C   -0.339687   0.006641
     2  C   -0.213076   0.083702
     3  C   -0.113146   0.023792
     4  N   -0.442846   0.534686
     5  C    0.859444  -0.074143
     6  O   -0.437811   0.069728
     7  N   -0.545248   0.094352
     8  C   -0.200096  -0.001192
     9  C    0.846980  -0.022134
    10  O   -0.438721   0.040100
    11  N   -0.637680  -0.016451
    12  C    0.803735  -0.001531
    13  F   -0.242139  -0.000559
    14  F   -0.263814   0.003304
    15  C    0.410585   0.000033
    16  F   -0.247027   0.000496
    17  O   -0.521386   0.000165
    18  C    0.999558  -0.000041
    19  F   -0.240406   0.000009
    20  F   -0.237760  -0.000001
    21  F   -0.234474  -0.000004
    22  C    0.821679  -0.000005
    23  F   -0.244287   0.000110
    24  F   -0.238809   0.000004
    25  F   -0.253693  -0.000004
    26  C    0.885587  -0.140427
    27  O   -0.352370   0.317160
    28  H    0.163637   0.017439
    29  H    0.148086   0.004118
    30  H    0.117994   0.000177
    31  H    0.183765   0.004055
    32  H    0.168029  -0.000491
    33  H    0.235766   0.032409
    34  H    0.223163   0.007360
    35  H    0.192442   0.002367
    36  H    0.192281   0.012443
    37  H    0.191745   0.002333
 Sum of Mulliken charges =   1.00000   1.00000

 Dipole moment (field-independent basis, Debye):
    X=            -10.1305    Y=              2.4534    Z=              0.9860  Tot=             10.4699
 Quadrupole moment (field-independent basis, Debye-Ang):
   XX=           -111.6502   YY=           -134.5207   ZZ=           -139.7877
   XY=              7.2567   XZ=              1.8705   YZ=             -0.8753

 Normal termination of Gaussian 09 at Sun Mar  3 18:00:18 2024.
