 Gaussian 09, Revision D.01,
 Gaussian 09:  ES64L-G09RevD.01 24-Apr-2013

 ----------------------------------------------------------------------
 #p CAM-B3LYP/6-31G(d,p) SCRF=(PCM,Solvent=Generic,Read) NoSymm out=wfn
 ----------------------------------------------------------------------

 -----------------
 Title finalDD2_p1
 -----------------
 Symbolic Z-matrix:
 Charge =  1 Multiplicity = 2

                          Input orientation:
 ---------------------------------------------------------------------
 Center     Atomic      Atomic             Coordinates (Angstroms)
 Number     Number       Type             X           Y           Z
 ---------------------------------------------------------------------
      1          8           0        5.718764   -0.802777    1.333028
      2          6           0        4.493369   -0.683843    1.292495
      3          7           0        3.883417    0.549788    1.203811
      4          6           0        4.733273    1.738059    1.118752
      5          6           0        5.119497    2.252714    2.510425
      6          6           0        5.803715    3.627028    2.511911
      7          6           0        7.076865    3.692725    1.670458
      8          9           0        6.736013    3.544050    0.358731
      9          9           0        7.867027    2.629451    1.982224
     10          6           0        7.853532    5.011694    1.865674
     11          9           0        8.959797    5.020477    1.082339
     12          9           0        8.265510    5.114123    3.153950
     13          8           0        7.066935    6.135086    1.539791
     14          6           0        7.707792    7.298633    1.981708
     15          9           0        7.580611    7.419025    3.318170
     16          9           0        7.093126    8.356041    1.409637
     17          9           0        9.008274    7.329281    1.640734
     18          6           0        2.517753    0.728849    1.265999
     19          8           0        2.008520    1.850916    1.256413
     20          7           0        1.752905   -0.415013    1.333223
     21          6           0        0.294391   -0.277083    1.333169
     22          6           0       -0.287335   -0.320013   -0.088386
     23          7           0       -1.739862   -0.135263   -0.100255
     24          6           0       -2.239869    1.140419   -0.240832
     25          8           0       -1.499542    2.119467   -0.347797
     26          7           0       -3.613120    1.262597   -0.269920
     27          6           0       -4.183677    2.590153   -0.498976
     28          6           0       -4.278007    2.912280   -1.995078
     29          6           0       -4.588079    4.382409   -2.304824
     30          6           0       -5.939109    4.862387   -1.780294
     31          9           0       -5.921164    4.797205   -0.423226
     32          9           0       -6.908730    4.004748   -2.195506
     33          6           0       -6.268204    6.301212   -2.251705
     34          9           0       -6.170751    6.338905   -3.614003
     35          9           0       -5.328801    7.180333   -1.814215
     36          8           0       -7.533769    6.841390   -1.966518
     37          6           0       -7.817800    6.766770   -0.600216
     38          9           0       -8.254443    5.531984   -0.294072
     39          9           0       -6.748800    7.075843    0.153019
     40          9           0       -8.801795    7.644952   -0.320038
     41          6           0       -4.467961    0.182275   -0.224587
     42          8           0       -5.672311    0.290452   -0.466022
     43          7           0       -3.895893   -1.031067    0.093015
     44          6           0       -4.777808   -2.183378    0.272321
     45          6           0       -5.014561   -2.928760   -1.045782
     46          6           0       -6.176627   -3.929776   -0.995117
     47          6           0       -5.985801   -5.069502    0.007026
     48          9           0       -5.889936   -4.556471    1.261399
     49          9           0       -4.789231   -5.669080   -0.241025
     50          6           0       -7.130146   -6.114945   -0.058815
     51          9           0       -7.138127   -6.659401   -1.311285
     52          9           0       -6.904541   -7.158066    0.778140
     53          8           0       -8.450493   -5.670296    0.143370
     54          6           0       -8.600674   -5.082377    1.405359
     55          9           0       -8.202212   -3.797219    1.343426
     56          9           0       -9.907697   -5.101306    1.731880
     57          9           0       -7.910005   -5.723907    2.360212
     58          6           0       -2.534270   -1.237070    0.129458
     59          8           0       -2.049204   -2.347541    0.349793
     60          6           0        2.283840   -1.685347    1.274512
     61          8           0        1.566959   -2.682439    1.180280
     62          7           0        3.658311   -1.780170    1.312159
     63          6           0        4.256282   -3.114640    1.321677
     64          6           0        4.323605   -3.763842   -0.069609
     65          6           0        5.237810   -3.016471   -1.043971
     66          6           0        5.272519   -3.609811   -2.452252
     67          9           0        4.009596   -3.579033   -2.964161
     68          9           0        6.003407   -2.752853   -3.229826
     69          6           0        5.867556   -5.028191   -2.558282
     70          9           0        5.086436   -5.919326   -1.900338
     71          9           0        5.911852   -5.416985   -3.857157
     72          8           0        7.175587   -5.087210   -2.037512
     73          6           0        7.543447   -6.423305   -1.849785
     74          9           0        7.189014   -7.207663   -2.881669
     75          9           0        6.996798   -6.887299   -0.709830
     76          9           0        8.886368   -6.471757   -1.717790
     77          1           0        4.206673    2.523533    0.563122
     78          1           0        5.631896    1.483176    0.545838
     79          1           0        4.220609    2.323245    3.136903
     80          1           0        5.773799    1.521804    3.002644
     81          1           0        6.045208    3.872556    3.553399
     82          1           0        5.088932    4.377196    2.152791
     83          1           0        0.011252    0.663955    1.820568
     84          1           0       -0.139420   -1.078983    1.942598
     85          1           0       -0.046846   -1.278472   -0.565238
     86          1           0        0.184255    0.454660   -0.704220
     87          1           0       -5.177466    2.632520   -0.040684
     88          1           0       -3.560455    3.336845    0.006614
     89          1           0       -5.032597    2.268630   -2.463839
     90          1           0       -3.326246    2.664383   -2.481762
     91          1           0       -4.561697    4.497921   -3.394845
     92          1           0       -3.792039    5.011297   -1.889247
     93          1           0       -4.330147   -2.855695    1.011587
     94          1           0       -5.734666   -1.842701    0.685571
     95          1           0       -5.234236   -2.204142   -1.840179
     96          1           0       -4.094302   -3.441290   -1.350160
     97          1           0       -6.287996   -4.353133   -2.000517
     98          1           0       -7.098441   -3.382837   -0.772574
     99          1           0        5.259844   -3.077155    1.759203
    100          1           0        3.653978   -3.753861    1.978549
    101          1           0        3.316607   -3.835073   -0.495882
    102          1           0        4.688872   -4.787293    0.065384
    103          1           0        6.256353   -2.962195   -0.641878
    104          1           0        4.888154   -1.982117   -1.142755
 ---------------------------------------------------------------------

 SCF Done:  E(UCAM-B3LYP) =  -5110.89797682     A.U. after   39 cycles

 Alpha  occ. eigenvalues --   -1.40189  -1.39937  -1.39658  -1.39610  -1.37681
 Alpha  occ. eigenvalues --   -1.37543  -1.37199  -1.36838  -1.34707  -1.34341
 Alpha  occ. eigenvalues --   -1.34327  -1.34177  -1.33994  -1.33559  -1.33455
 Alpha  occ. eigenvalues --   -1.33332  -1.32904  -1.32624  -1.32273  -1.32007
 Alpha  occ. eigenvalues --   -1.31441  -1.31348  -1.31223  -1.30678  -1.26882
 Alpha  occ. eigenvalues --   -1.26690  -1.21922  -1.21889  -1.21733  -1.21711
 Alpha  occ. eigenvalues --   -1.21566  -1.21544  -1.20700  -1.20535  -1.14381
 Alpha  occ. eigenvalues --   -1.13978  -1.11011  -1.10493  -1.09331  -1.09247
 Alpha  occ. eigenvalues --   -0.96264  -0.94006  -0.93591  -0.93473  -0.93344
 Alpha  occ. eigenvalues --   -0.90458  -0.89798  -0.89690  -0.89282  -0.86581
 Alpha  occ. eigenvalues --   -0.86082  -0.85974  -0.85468  -0.85256  -0.83344
 Alpha  occ. eigenvalues --   -0.82317  -0.82146  -0.81123  -0.80084  -0.79605
 Alpha  occ. eigenvalues --   -0.79512  -0.78382  -0.77455  -0.77120  -0.76762
 Alpha  occ. eigenvalues --   -0.76430  -0.75958  -0.75787  -0.73699  -0.73634
 Alpha  occ. eigenvalues --   -0.72775  -0.72725  -0.72557  -0.72283  -0.72045
 Alpha  occ. eigenvalues --   -0.71856  -0.71474  -0.71435  -0.71259  -0.71072
 Alpha  occ. eigenvalues --   -0.71065  -0.70941  -0.70667  -0.70520  -0.69413
 Alpha  occ. eigenvalues --   -0.68749  -0.68578  -0.68321  -0.68162  -0.67973
 Alpha  occ. eigenvalues --   -0.67361  -0.67234  -0.67195  -0.67135  -0.66017
 Alpha  occ. eigenvalues --   -0.65457  -0.65240  -0.65177  -0.64913  -0.64589
 Alpha  occ. eigenvalues --   -0.62909  -0.62640  -0.62509  -0.62091  -0.61993
 Alpha  occ. eigenvalues --   -0.61964  -0.61606  -0.61358  -0.61285  -0.61111
 Alpha  occ. eigenvalues --   -0.61070  -0.60281  -0.60180  -0.59838  -0.59833
 Alpha  occ. eigenvalues --   -0.59008  -0.58645  -0.58415  -0.58338  -0.58266
 Alpha  occ. eigenvalues --   -0.58117  -0.57979  -0.57848  -0.57593  -0.57479
 Alpha  occ. eigenvalues --   -0.57419  -0.57221  -0.57071  -0.56916  -0.56746
 Alpha  occ. eigenvalues --   -0.56596  -0.56409  -0.56354  -0.56200  -0.56099
 Alpha  occ. eigenvalues --   -0.55292  -0.55157  -0.55124  -0.54958  -0.54834
 Alpha  occ. eigenvalues --   -0.54770  -0.54667  -0.54460  -0.54273  -0.53924
 Alpha  occ. eigenvalues --   -0.53899  -0.53811  -0.53734  -0.53507  -0.53432
 Alpha  occ. eigenvalues --   -0.53390  -0.53246  -0.53109  -0.52869  -0.52673
 Alpha  occ. eigenvalues --   -0.52471  -0.52416  -0.52247  -0.52221  -0.51953
 Alpha  occ. eigenvalues --   -0.51844  -0.51779  -0.51517  -0.51442  -0.51422
 Alpha  occ. eigenvalues --   -0.51413  -0.51403  -0.51263  -0.51125  -0.51087
 Alpha  occ. eigenvalues --   -0.51024  -0.50779  -0.50567  -0.50529  -0.50365
 Alpha  occ. eigenvalues --   -0.50218  -0.50069  -0.49960  -0.49848  -0.49747
 Alpha  occ. eigenvalues --   -0.49635  -0.49550  -0.49324  -0.49219  -0.49178
 Alpha  occ. eigenvalues --   -0.48959  -0.48349  -0.48185  -0.48130  -0.47379
 Alpha  occ. eigenvalues --   -0.46990  -0.46859  -0.46395  -0.46207  -0.46184
 Alpha  occ. eigenvalues --   -0.46044  -0.45693  -0.45258  -0.44923  -0.44742
 Alpha  occ. eigenvalues --   -0.44466  -0.44343  -0.44150  -0.43924  -0.43652
 Alpha  occ. eigenvalues --   -0.43480  -0.43333  -0.42958  -0.42453  -0.42371
 Alpha  occ. eigenvalues --   -0.42277  -0.39860  -0.39832  -0.39714  -0.39589
 Alpha  occ. eigenvalues --   -0.39307  -0.38925
 Alpha virt. eigenvalues --   -0.02735  -0.02629  -0.02464  -0.02070   0.07962
 Alpha virt. eigenvalues --    0.08286   0.08538   0.09353   0.09463   0.09696
 Alpha virt. eigenvalues --    0.09744   0.09856   0.10323   0.10425   0.10762

  Beta  occ. eigenvalues --  -24.84814 -24.84537 -24.84509 -24.84490 -24.84473
  Beta  occ. eigenvalues --  -24.84333 -24.84212 -24.83953 -24.83951 -24.83869
  Beta  occ. eigenvalues --  -24.83840 -24.83837 -24.83801 -24.83640 -24.83152
  Beta  occ. eigenvalues --  -24.83106 -24.82997 -24.82946 -24.82872 -24.82724
  Beta  occ. eigenvalues --  -24.82675 -24.82658 -24.82277 -24.82189 -24.82179
  Beta  occ. eigenvalues --  -24.82177 -24.82152 -24.81431 -19.33702 -19.33567
  Beta  occ. eigenvalues --  -19.33515 -19.33344 -19.29104 -19.29065 -19.28755
  Beta  occ. eigenvalues --  -19.28722 -19.26578 -19.26552 -14.59565 -14.59335
  Beta  occ. eigenvalues --  -14.53960 -14.53833 -14.53808 -14.53676 -10.60519
  Beta  occ. eigenvalues --  -10.60234 -10.60129 -10.60124 -10.53958 -10.53719
  Beta  occ. eigenvalues --  -10.53688 -10.53688 -10.49830 -10.49763 -10.49678
  Beta  occ. eigenvalues --  -10.49659 -10.48012 -10.47977 -10.47762 -10.47693
  Beta  occ. eigenvalues --  -10.47691 -10.47651 -10.40414 -10.40378 -10.34578
  Beta  occ. eigenvalues --  -10.34245 -10.34187 -10.34141 -10.30741 -10.30601
  Beta  occ. eigenvalues --  -10.30574 -10.30540 -10.30308 -10.30167 -10.30156
  Beta  occ. eigenvalues --  -10.30064  -1.44118  -1.43853  -1.43751  -1.43630
  Beta  occ. eigenvalues --   -1.40189  -1.39937  -1.39658  -1.39610  -1.37681
  Beta  occ. eigenvalues --   -1.37543  -1.37199  -1.36838  -1.34707  -1.34341
  Beta  occ. eigenvalues --   -1.34327  -1.34176  -1.33994  -1.33559  -1.33455
  Beta  occ. eigenvalues --   -1.33332  -1.32903  -1.32624  -1.32273  -1.32007
  Beta  occ. eigenvalues --   -1.31441  -1.31348  -1.31223  -1.30677  -1.26380
  Beta  occ. eigenvalues --   -1.26214  -1.21733  -1.21711  -1.21566  -1.21563
  Beta  occ. eigenvalues --   -1.21544  -1.21521  -1.20498  -1.20334  -1.13430
  Beta  occ. eigenvalues --   -1.13078  -1.10732  -1.10085  -1.09219  -1.09133
  Beta  occ. eigenvalues --   -0.95687  -0.93981  -0.93563  -0.93360  -0.93328
  Beta  occ. eigenvalues --   -0.90422  -0.89747  -0.89652  -0.89246  -0.86404
  Beta  occ. eigenvalues --   -0.85971  -0.85862  -0.85444  -0.85193  -0.83267
  Beta  occ. eigenvalues --   -0.82302  -0.82057  -0.81073  -0.79936  -0.79542
  Beta  occ. eigenvalues --   -0.79424  -0.78184  -0.77393  -0.77058  -0.76729
  Beta  occ. eigenvalues --   -0.76303  -0.75950  -0.75778  -0.73646  -0.73563
  Beta  occ. eigenvalues --   -0.72758  -0.72709  -0.72554  -0.72281  -0.72034
  Beta  occ. eigenvalues --   -0.71853  -0.71467  -0.71429  -0.71245  -0.71071
  Beta  occ. eigenvalues --   -0.71061  -0.70926  -0.70647  -0.70507  -0.68731
  Beta  occ. eigenvalues --   -0.68583  -0.68392  -0.68263  -0.68035  -0.67609
  Beta  occ. eigenvalues --   -0.67295  -0.67231  -0.67186  -0.67080  -0.65528
  Beta  occ. eigenvalues --   -0.65329  -0.65100  -0.64966  -0.64889  -0.64343
  Beta  occ. eigenvalues --   -0.62815  -0.62607  -0.62410  -0.62001  -0.61941
  Beta  occ. eigenvalues --   -0.61808  -0.61556  -0.61306  -0.61184  -0.61050
  Beta  occ. eigenvalues --   -0.60862  -0.60174  -0.59978  -0.59603  -0.59588
  Beta  occ. eigenvalues --   -0.58537  -0.58459  -0.58333  -0.58184  -0.58143
  Beta  occ. eigenvalues --   -0.58037  -0.57860  -0.57723  -0.57481  -0.57471
  Beta  occ. eigenvalues --   -0.57212  -0.56980  -0.56929  -0.56735  -0.56552
  Beta  occ. eigenvalues --   -0.56425  -0.56354  -0.56217  -0.56129  -0.55686
  Beta  occ. eigenvalues --   -0.55259  -0.55147  -0.55119  -0.54947  -0.54800
  Beta  occ. eigenvalues --   -0.54715  -0.54582  -0.54301  -0.54268  -0.53896
  Beta  occ. eigenvalues --   -0.53884  -0.53782  -0.53471  -0.53432  -0.53393
  Beta  occ. eigenvalues --   -0.53244  -0.53087  -0.52830  -0.52661  -0.52461
  Beta  occ. eigenvalues --   -0.52399  -0.52224  -0.52181  -0.52130  -0.51910
  Beta  occ. eigenvalues --   -0.51758  -0.51657  -0.51449  -0.51440  -0.51414
  Beta  occ. eigenvalues --   -0.51399  -0.51388  -0.51236  -0.51111  -0.51049
  Beta  occ. eigenvalues --   -0.50993  -0.50696  -0.50553  -0.50484  -0.50322
  Beta  occ. eigenvalues --   -0.50189  -0.50060  -0.49925  -0.49837  -0.49720
  Beta  occ. eigenvalues --   -0.49613  -0.49528  -0.49318  -0.49213  -0.49156
  Beta  occ. eigenvalues --   -0.48822  -0.48286  -0.48141  -0.48097  -0.47190
  Beta  occ. eigenvalues --   -0.46824  -0.46757  -0.46211  -0.46192  -0.46042
  Beta  occ. eigenvalues --   -0.45963  -0.45177  -0.44843  -0.44648  -0.44510
  Beta  occ. eigenvalues --   -0.44312  -0.44063  -0.43679  -0.43434  -0.43191
  Beta  occ. eigenvalues --   -0.42828  -0.42419  -0.42341  -0.42285  -0.40391
  Beta  occ. eigenvalues --   -0.39591  -0.39433  -0.39223  -0.38794  -0.38547
  Beta  occ. eigenvalues --   -0.38370
  Beta virt. eigenvalues --   -0.28333  -0.02317  -0.02123  -0.01944  -0.01310
  Beta virt. eigenvalues --    0.08190   0.08752   0.08802   0.09437   0.09560
  Beta virt. eigenvalues --    0.09733   0.09750   0.09914   0.10338   0.10510

 Mulliken charges and spin densities:
               1          2
     1  O   -0.498049   0.025625
     2  C    0.844433  -0.011644
     3  N   -0.571754   0.011194
     4  C   -0.071481   0.000253
     5  C   -0.207179   0.002547
     6  C   -0.265235   0.000225
     7  C    0.546231  -0.000022
     8  F   -0.280551   0.000015
     9  F   -0.279498   0.000004
    10  C    0.760373  -0.000004
    11  F   -0.262209   0.000004
    12  F   -0.262328   0.000004
    13  O   -0.512321   0.000001
    14  C    0.988353   0.000000
    15  F   -0.247445   0.000000
    16  F   -0.247394   0.000000
    17  F   -0.240422   0.000000
    18  C    0.851519  -0.050607
    19  O   -0.472425   0.087351
    20  N   -0.509636   0.291626
    21  C   -0.076672   0.054340
    22  C   -0.077954   0.050920
    23  N   -0.504018   0.310676
    24  C    0.850093  -0.050877
    25  O   -0.474376   0.080209
    26  N   -0.566308   0.019691
    27  C   -0.070302  -0.000221
    28  C   -0.212033   0.003584
    29  C   -0.261444   0.000375
    30  C    0.549873  -0.000013
    31  F   -0.280871   0.000015
    32  F   -0.280831   0.000006
    33  C    0.745948  -0.000005
    34  F   -0.270218   0.000010
    35  F   -0.260114   0.000001
    36  O   -0.492591   0.000007
    37  C    0.978598  -0.000001
    38  F   -0.244383   0.000001
    39  F   -0.244515   0.000000
    40  F   -0.243697   0.000000
    41  C    0.841595  -0.011243
    42  O   -0.493792   0.023799
    43  N   -0.569176   0.003637
    44  C   -0.070533   0.000340
    45  C   -0.210273   0.001773
    46  C   -0.262359   0.000525
    47  C    0.545278   0.000025
    48  F   -0.276620   0.000054
    49  F   -0.280321   0.000009
    50  C    0.733669  -0.000010
    51  F   -0.268259   0.000006
    52  F   -0.257786  -0.000001
    53  O   -0.491591   0.000002
    54  C    0.982884   0.000000
    55  F   -0.246844   0.000000
    56  F   -0.240236   0.000000
    57  F   -0.238025   0.000001
    58  C    0.849488  -0.057021
    59  O   -0.463388   0.110596
    60  C    0.852024  -0.052209
    61  O   -0.465083   0.097370
    62  N   -0.559311   0.011915
    63  C   -0.084917   0.001606
    64  C   -0.216424   0.001991
    65  C   -0.257128   0.000204
    66  C    0.544109   0.000305
    67  F   -0.282043   0.000033
    68  F   -0.286270   0.000118
    69  C    0.763468   0.000002
    70  F   -0.260038   0.000026
    71  F   -0.263133   0.000009
    72  O   -0.512831   0.000000
    73  C    0.990968   0.000000
    74  F   -0.241144   0.000000
    75  F   -0.248712   0.000000
    76  F   -0.245819   0.000000
    77  H    0.162633   0.000286
    78  H    0.169571   0.000308
    79  H    0.132969  -0.000057
    80  H    0.145267   0.000287
    81  H    0.153745   0.000163
    82  H    0.154929   0.000069
    83  H    0.220427   0.006731
    84  H    0.221468   0.011110
    85  H    0.221343   0.011057
    86  H    0.219327   0.007940
    87  H    0.171354   0.000628
    88  H    0.162664   0.000576
    89  H    0.146090   0.000339
    90  H    0.133937  -0.000084
    91  H    0.157720   0.000218
    92  H    0.152836   0.000094
    93  H    0.166554   0.000187
    94  H    0.164381   0.000222
    95  H    0.138466   0.000131
    96  H    0.140501  -0.000105
    97  H    0.156903   0.000133
    98  H    0.149743  -0.000004
    99  H    0.177279  -0.000295
   100  H    0.167434   0.000619
   101  H    0.138301  -0.000120
   102  H    0.144192   0.000357
   103  H    0.157863  -0.000014
   104  H    0.133511   0.000067
 Sum of Mulliken charges =   1.00000   1.00000

 Dipole moment (field-independent basis, Debye):
    X=             -0.3816    Y=             -0.3139    Z=              4.1519  Tot=              4.1812
 Quadrupole moment (field-independent basis, Debye-Ang):
   XX=           -407.2012   YY=           -430.4992   ZZ=           -393.8141
   XY=             -1.6798   XZ=             28.1335   YZ=             -1.1299

 Normal termination of Gaussian 09 at Thu Jan 30 16:44:06 2025.
