 Gaussian 09, Revision D.01,
 Gaussian 09:  ES64L-G09RevD.01 24-Apr-2013

 ----------------------------------------------------------------------
 #p CAM-B3LYP/6-31G(d,p) SCRF=(PCM,Solvent=Generic,Read) NoSymm out=wfn
 ----------------------------------------------------------------------

 --------------------
 Title A1400116031_p1
 --------------------
 Symbolic Z-matrix:
 Charge =  1 Multiplicity = 2

                          Input orientation:
 ---------------------------------------------------------------------
 Center     Atomic      Atomic             Coordinates (Angstroms)
 Number     Number       Type             X           Y           Z
 ---------------------------------------------------------------------
      1          8           0        0.466958   -2.430431   -0.927199
      2          6           0        0.018507   -1.287172   -0.921499
      3          7           0        0.844237   -0.200680   -0.740885
      4          6           0        2.297019   -0.429864   -0.638643
      5          6           0        2.740065   -0.698677    0.810601
      6          9           0        2.151791    0.245106    1.611191
      7          9           0        2.217200   -1.881400    1.228821
      8          6           0        4.257829   -0.666152    1.051880
      9          9           0        4.466096   -0.857111    2.390015
     10          8           0        4.723386    0.654788    0.749089
     11          6           0        6.120953    0.779692    0.840547
     12          9           0        6.430369    2.084655    0.941351
     13          9           0        6.668566    0.295042   -0.287255
     14          9           0        6.609760    0.127995    1.905309
     15          6           0        4.897752   -1.813327    0.255270
     16          9           0        4.310529   -3.004622    0.487473
     17          9           0        4.807537   -1.575690   -1.076128
     18          9           0        6.211003   -1.959385    0.537883
     19          6           0        0.370377    1.073365   -0.517614
     20          8           0        1.134797    2.033948   -0.467112
     21          7           0       -0.985319    1.198514   -0.376724
     22          6           0       -1.537643    2.515884   -0.082001
     23          9           0       -0.669576    3.221030    0.690754
     24          9           0       -2.607277    2.331309    0.757567
     25          6           0       -2.019738    3.364960   -1.294155
     26          9           0       -2.566591    2.505899   -2.226013
     27          8           0       -3.122537    4.237554   -1.000537
     28          6           0       -2.782609    5.375859   -0.252784
     29          9           0       -2.077108    5.036723    0.832432
     30          9           0       -3.913137    5.990380    0.136863
     31          9           0       -2.070686    6.221083   -1.012845
     32          6           0       -0.819889    4.017838   -1.978742
     33          9           0       -0.003756    3.088722   -2.529403
     34          9           0       -0.084485    4.779802   -1.147178
     35          9           0       -1.225232    4.814758   -2.998883
     36          6           0       -1.861875    0.200349   -0.733959
     37          8           0       -3.075414    0.382634   -0.744144
     38          7           0       -1.314414   -1.012664   -1.077483
     39          6           0       -2.224987   -2.106243   -1.392002
     40          9           0       -3.122798   -1.623525   -2.313980
     41          9           0       -1.574226   -3.075153   -2.103614
     42          6           0       -3.027332   -2.776462   -0.242454
     43          9           0       -3.733028   -1.824540    0.435180
     44          8           0       -4.003312   -3.640905   -0.849233
     45          6           0       -4.705584   -4.427236    0.075069
     46          9           0       -5.034913   -3.725598    1.169996
     47          9           0       -5.830619   -4.877029   -0.510404
     48          9           0       -3.947320   -5.483326    0.413979
     49          6           0       -2.031859   -3.436633    0.713102
     50          9           0       -1.162383   -2.529013    1.218325
     51          9           0       -2.650439   -3.986209    1.784517
     52          9           0       -1.323679   -4.417634    0.120962
     53          1           0        2.814231    0.450081   -1.035620
     54          1           0        2.550807   -1.281290   -1.277648
 ---------------------------------------------------------------------

 SCF Done:  E(UCAM-B3LYP) =  -3920.79334997     A.U. after   45 cycles

 Alpha  occ. eigenvalues --  -24.89256 -24.88502 -24.87956 -24.87547 -24.87448
 Alpha  occ. eigenvalues --  -24.87305 -24.87203 -24.87049 -24.86846 -24.86820
 Alpha  occ. eigenvalues --  -24.86803 -24.86657 -24.86573 -24.86412 -24.86408
 Alpha  occ. eigenvalues --  -24.86170 -24.86036 -24.85959 -24.85886 -24.85774
 Alpha  occ. eigenvalues --  -24.85733 -24.85684 -24.85589 -24.85563 -24.85418
 Alpha  occ. eigenvalues --  -24.85400 -24.85315 -19.42483 -19.37096 -19.36191
 Alpha  occ. eigenvalues --  -19.36084 -19.35958 -19.32338 -14.66468 -14.62435
 Alpha  occ. eigenvalues --  -14.61235 -10.62045 -10.62004 -10.61813 -10.59424
 Alpha  occ. eigenvalues --  -10.59301 -10.58875 -10.58583 -10.58449 -10.58376
 Alpha  occ. eigenvalues --  -10.56241 -10.54486 -10.54174 -10.53254 -10.52855
 Alpha  occ. eigenvalues --  -10.52278 -10.43147  -1.46366  -1.45995  -1.45915
 Alpha  occ. eigenvalues --   -1.44895  -1.44878  -1.44872  -1.44310  -1.43599
 Alpha  occ. eigenvalues --   -1.42916  -1.39441  -1.39006  -1.38414  -1.37388
 Alpha  occ. eigenvalues --   -1.36588  -1.36581  -1.36516  -1.36334  -1.36053
 Alpha  occ. eigenvalues --   -1.36029  -1.35887  -1.35788  -1.35765  -1.35579
 Alpha  occ. eigenvalues --   -1.35363  -1.35299  -1.35118  -1.35040  -1.34905
 Alpha  occ. eigenvalues --   -1.31088  -1.27533  -1.23649  -1.23428  -1.23402
 Alpha  occ. eigenvalues --   -1.21915  -1.18016  -1.17335  -1.00335  -0.98386
 Alpha  occ. eigenvalues --   -0.97407  -0.94933  -0.93047  -0.91856  -0.88193
 Alpha  occ. eigenvalues --   -0.86770  -0.85782  -0.85374  -0.85038  -0.84371
 Alpha  occ. eigenvalues --   -0.83001  -0.80534  -0.79814  -0.78997  -0.77791
 Alpha  occ. eigenvalues --   -0.76872  -0.76272  -0.75920  -0.75871  -0.75134
 Alpha  occ. eigenvalues --   -0.74898  -0.74243  -0.74093  -0.73545  -0.73092
 Alpha  occ. eigenvalues --   -0.72693  -0.72328  -0.72248  -0.72015  -0.71943
 Alpha  occ. eigenvalues --   -0.71772  -0.71607  -0.71517  -0.71070  -0.70879
 Alpha  occ. eigenvalues --   -0.70196  -0.69976  -0.69742  -0.69574  -0.69124
 Alpha  occ. eigenvalues --   -0.68915  -0.68130  -0.67687  -0.66342  -0.65931
 Alpha  occ. eigenvalues --   -0.65032  -0.63740  -0.62891  -0.62443  -0.62280
 Alpha  occ. eigenvalues --   -0.61923  -0.61290  -0.60836  -0.60803  -0.60532
 Alpha  occ. eigenvalues --   -0.60317  -0.60150  -0.60021  -0.59782  -0.59722
 Alpha  occ. eigenvalues --   -0.59641  -0.59172  -0.59019  -0.58839  -0.58682
 Alpha  occ. eigenvalues --   -0.58609  -0.58437  -0.58254  -0.58132  -0.57976
 Alpha  occ. eigenvalues --   -0.57734  -0.57560  -0.57306  -0.57156  -0.56904
 Alpha  occ. eigenvalues --   -0.56256  -0.56172  -0.56068  -0.55826  -0.55513
 Alpha  occ. eigenvalues --   -0.55383  -0.55179  -0.55024  -0.54891  -0.54759
 Alpha  occ. eigenvalues --   -0.54690  -0.54501  -0.54421  -0.54149  -0.53941
 Alpha  occ. eigenvalues --   -0.53837  -0.53675  -0.53600  -0.53471  -0.53335
 Alpha  occ. eigenvalues --   -0.53097  -0.52779  -0.52688  -0.52501  -0.52373
 Alpha  occ. eigenvalues --   -0.52082  -0.51916  -0.51843  -0.51733  -0.51278
 Alpha  occ. eigenvalues --   -0.50967  -0.50573  -0.49715  -0.48920  -0.48451
 Alpha  occ. eigenvalues --   -0.47893  -0.47374  -0.46914  -0.45686  -0.45169
 Alpha virt. eigenvalues --   -0.10804  -0.08218  -0.00584   0.00410   0.01054
 Alpha virt. eigenvalues --    0.01941   0.03114   0.03750   0.04390   0.07433
 Alpha virt. eigenvalues --    0.08881   0.09192   0.10054   0.11708   0.12163

  Beta  occ. eigenvalues --  -24.89187 -24.88502 -24.87928 -24.87492 -24.87446
  Beta  occ. eigenvalues --  -24.87303 -24.87202 -24.87040 -24.86834 -24.86820
  Beta  occ. eigenvalues --  -24.86803 -24.86656 -24.86565 -24.86412 -24.86408
  Beta  occ. eigenvalues --  -24.86170 -24.86036 -24.85958 -24.85878 -24.85773
  Beta  occ. eigenvalues --  -24.85733 -24.85684 -24.85588 -24.85563 -24.85418
  Beta  occ. eigenvalues --  -24.85400 -24.85315 -19.41140 -19.36368 -19.36190
  Beta  occ. eigenvalues --  -19.36084 -19.35958 -19.32216 -14.65781 -14.62433
  Beta  occ. eigenvalues --  -14.61252 -10.62045 -10.62004 -10.61813 -10.59424
  Beta  occ. eigenvalues --  -10.59304 -10.58875 -10.58584 -10.58582 -10.58450
  Beta  occ. eigenvalues --  -10.56405 -10.54504 -10.54116 -10.53256 -10.52857
  Beta  occ. eigenvalues --  -10.52266 -10.43146  -1.46360  -1.45992  -1.45911
  Beta  occ. eigenvalues --   -1.44894  -1.44878  -1.44871  -1.44224  -1.43566
  Beta  occ. eigenvalues --   -1.42839  -1.39432  -1.39004  -1.38391  -1.37375
  Beta  occ. eigenvalues --   -1.36577  -1.36514  -1.36481  -1.36321  -1.36044
  Beta  occ. eigenvalues --   -1.36003  -1.35856  -1.35786  -1.35729  -1.35578
  Beta  occ. eigenvalues --   -1.35299  -1.35116  -1.35044  -1.34911  -1.34013
  Beta  occ. eigenvalues --   -1.29647  -1.27014  -1.23645  -1.23426  -1.23400
  Beta  occ. eigenvalues --   -1.20333  -1.17524  -1.16956  -1.00193  -0.98334
  Beta  occ. eigenvalues --   -0.97352  -0.94811  -0.92584  -0.91761  -0.87959
  Beta  occ. eigenvalues --   -0.86583  -0.85677  -0.85210  -0.84880  -0.84231
  Beta  occ. eigenvalues --   -0.82914  -0.80497  -0.79803  -0.78906  -0.77741
  Beta  occ. eigenvalues --   -0.76845  -0.76160  -0.75896  -0.75781  -0.74947
  Beta  occ. eigenvalues --   -0.74827  -0.74199  -0.73960  -0.73383  -0.72835
  Beta  occ. eigenvalues --   -0.72599  -0.72301  -0.72213  -0.71941  -0.71841
  Beta  occ. eigenvalues --   -0.71602  -0.71560  -0.71509  -0.70983  -0.70767
  Beta  occ. eigenvalues --   -0.70091  -0.69860  -0.69518  -0.69149  -0.68945
  Beta  occ. eigenvalues --   -0.68812  -0.67659  -0.67584  -0.65856  -0.64897
  Beta  occ. eigenvalues --   -0.64428  -0.63634  -0.62690  -0.62159  -0.61854
  Beta  occ. eigenvalues --   -0.61553  -0.60830  -0.60767  -0.60657  -0.60476
  Beta  occ. eigenvalues --   -0.60248  -0.60011  -0.59894  -0.59751  -0.59696
  Beta  occ. eigenvalues --   -0.59378  -0.59140  -0.58911  -0.58805  -0.58593
  Beta  occ. eigenvalues --   -0.58562  -0.58301  -0.58195  -0.58099  -0.57927
  Beta  occ. eigenvalues --   -0.57659  -0.57436  -0.57242  -0.57086  -0.56659
  Beta  occ. eigenvalues --   -0.56129  -0.56020  -0.55795  -0.55639  -0.55255
  Beta  occ. eigenvalues --   -0.55168  -0.55009  -0.54982  -0.54781  -0.54663
  Beta  occ. eigenvalues --   -0.54597  -0.54213  -0.54097  -0.53957  -0.53658
  Beta  occ. eigenvalues --   -0.53625  -0.53572  -0.53440  -0.53319  -0.53098
  Beta  occ. eigenvalues --   -0.52686  -0.52586  -0.52500  -0.52046  -0.52021
  Beta  occ. eigenvalues --   -0.51844  -0.51722  -0.51627  -0.51174  -0.50661
  Beta  occ. eigenvalues --   -0.49557  -0.48898  -0.48060  -0.47868  -0.47413
  Beta  occ. eigenvalues --   -0.47317  -0.46261  -0.45254  -0.44270
  Beta virt. eigenvalues --   -0.31517  -0.09904  -0.07580  -0.00333   0.00540
  Beta virt. eigenvalues --    0.01138   0.01961   0.03248   0.03822   0.04487
  Beta virt. eigenvalues --    0.07549   0.08965   0.09295   0.10143   0.11791

 Mulliken charges and spin densities:
               1          2
     1  O   -0.277971   0.505266
     2  C    0.935096  -0.120938
     3  N   -0.534363   0.320394
     4  C   -0.172435  -0.005673
     5  C    0.595615   0.020764
     6  F   -0.265201   0.003439
     7  F   -0.248133   0.013632
     8  C    0.424725   0.004886
     9  F   -0.256773   0.002242
    10  O   -0.513505   0.000221
    11  C    1.002528   0.000115
    12  F   -0.231872   0.000016
    13  F   -0.243350   0.000049
    14  F   -0.235011   0.000041
    15  C    0.811751   0.000012
    16  F   -0.232010  -0.000003
    17  F   -0.244634   0.000285
    18  F   -0.240973   0.000170
    19  C    0.912872  -0.097119
    20  O   -0.357268   0.280526
    21  N   -0.650111  -0.003119
    22  C    0.758689  -0.001003
    23  F   -0.233215   0.006101
    24  F   -0.251321   0.002076
    25  C    0.444958  -0.000575
    26  F   -0.267492   0.000064
    27  O   -0.485290  -0.000051
    28  C    0.983117  -0.000017
    29  F   -0.234228   0.000114
    30  F   -0.230420   0.000009
    31  F   -0.236090  -0.000001
    32  C    0.820164  -0.000226
    33  F   -0.250714   0.000325
    34  F   -0.237544   0.000035
    35  F   -0.247701   0.000069
    36  C    0.908353  -0.009537
    37  O   -0.412266   0.045483
    38  N   -0.651859   0.004769
    39  C    0.743858  -0.002338
    40  F   -0.242007   0.002287
    41  F   -0.231989   0.015628
    42  C    0.448710  -0.000710
    43  F   -0.245636   0.000216
    44  O   -0.504641   0.000065
    45  C    1.003361  -0.000037
    46  F   -0.239364   0.000004
    47  F   -0.232177  -0.000008
    48  F   -0.241818  -0.000001
    49  C    0.816302  -0.000322
    50  F   -0.256024   0.000019
    51  F   -0.240839   0.000040
    52  F   -0.229437   0.000283
    53  H    0.253625   0.004652
    54  H    0.241960   0.007380
 Sum of Mulliken charges =   1.00000   1.00000

 Dipole moment (field-independent basis, Debye):
    X=              3.4800    Y=             -1.8384    Z=             -3.8348  Tot=              5.4951
 Quadrupole moment (field-independent basis, Debye-Ang):
   XX=           -251.4947   YY=           -255.6069   ZZ=           -263.2743
   XY=             -0.4357   XZ=             -4.7404   YZ=              1.3873

 Normal termination of Gaussian 09 at Sun Mar  3 17:45:16 2024.
