 Gaussian 09, Revision D.01,
 Gaussian 09:  ES64L-G09RevD.01 24-Apr-2013

 ----------------------------------------------------------------------
 #p CAM-B3LYP/6-31G(d,p) SCRF=(PCM,Solvent=Generic,Read) NoSymm out=wfn
 ----------------------------------------------------------------------

 -------------------
 Title A1400116031_0
 -------------------
 Symbolic Z-matrix:
 Charge =  0 Multiplicity = 1

                          Input orientation:
 ---------------------------------------------------------------------
 Center     Atomic      Atomic             Coordinates (Angstroms)
 Number     Number       Type             X           Y           Z
 ---------------------------------------------------------------------
      1          8           0        0.466958   -2.430431   -0.927199
      2          6           0        0.018507   -1.287172   -0.921499
      3          7           0        0.844237   -0.200680   -0.740885
      4          6           0        2.297019   -0.429864   -0.638643
      5          6           0        2.740065   -0.698677    0.810601
      6          9           0        2.151791    0.245106    1.611191
      7          9           0        2.217200   -1.881400    1.228821
      8          6           0        4.257829   -0.666152    1.051880
      9          9           0        4.466096   -0.857111    2.390015
     10          8           0        4.723386    0.654788    0.749089
     11          6           0        6.120953    0.779692    0.840547
     12          9           0        6.430369    2.084655    0.941351
     13          9           0        6.668566    0.295042   -0.287255
     14          9           0        6.609760    0.127995    1.905309
     15          6           0        4.897752   -1.813327    0.255270
     16          9           0        4.310529   -3.004622    0.487473
     17          9           0        4.807537   -1.575690   -1.076128
     18          9           0        6.211003   -1.959385    0.537883
     19          6           0        0.370377    1.073365   -0.517614
     20          8           0        1.134797    2.033948   -0.467112
     21          7           0       -0.985319    1.198514   -0.376724
     22          6           0       -1.537643    2.515884   -0.082001
     23          9           0       -0.669576    3.221030    0.690754
     24          9           0       -2.607277    2.331309    0.757567
     25          6           0       -2.019738    3.364960   -1.294155
     26          9           0       -2.566591    2.505899   -2.226013
     27          8           0       -3.122537    4.237554   -1.000537
     28          6           0       -2.782609    5.375859   -0.252784
     29          9           0       -2.077108    5.036723    0.832432
     30          9           0       -3.913137    5.990380    0.136863
     31          9           0       -2.070686    6.221083   -1.012845
     32          6           0       -0.819889    4.017838   -1.978742
     33          9           0       -0.003756    3.088722   -2.529403
     34          9           0       -0.084485    4.779802   -1.147178
     35          9           0       -1.225232    4.814758   -2.998883
     36          6           0       -1.861875    0.200349   -0.733959
     37          8           0       -3.075414    0.382634   -0.744144
     38          7           0       -1.314414   -1.012664   -1.077483
     39          6           0       -2.224987   -2.106243   -1.392002
     40          9           0       -3.122798   -1.623525   -2.313980
     41          9           0       -1.574226   -3.075153   -2.103614
     42          6           0       -3.027332   -2.776462   -0.242454
     43          9           0       -3.733028   -1.824540    0.435180
     44          8           0       -4.003312   -3.640905   -0.849233
     45          6           0       -4.705584   -4.427236    0.075069
     46          9           0       -5.034913   -3.725598    1.169996
     47          9           0       -5.830619   -4.877029   -0.510404
     48          9           0       -3.947320   -5.483326    0.413979
     49          6           0       -2.031859   -3.436633    0.713102
     50          9           0       -1.162383   -2.529013    1.218325
     51          9           0       -2.650439   -3.986209    1.784517
     52          9           0       -1.323679   -4.417634    0.120962
     53          1           0        2.814231    0.450081   -1.035620
     54          1           0        2.550807   -1.281290   -1.277648
 ---------------------------------------------------------------------

 SCF Done:  E(RCAM-B3LYP) =  -3921.13595972     A.U. after   13 cycles

 Alpha  occ. eigenvalues --  -24.84416 -24.84390 -24.84237 -24.83995 -24.83992
 Alpha  occ. eigenvalues --  -24.83946 -24.83818 -24.83773 -24.83737 -24.83697
 Alpha  occ. eigenvalues --  -24.83644 -24.83572 -24.83565 -24.83542 -24.83506
 Alpha  occ. eigenvalues --  -24.83473 -24.83307 -24.83284 -24.83230 -24.83230
 Alpha  occ. eigenvalues --  -24.83169 -24.82916 -24.82630 -24.82355 -24.82271
 Alpha  occ. eigenvalues --  -24.81744 -24.81529 -19.33433 -19.33198 -19.33091
 Alpha  occ. eigenvalues --  -19.25025 -19.24609 -19.24589 -14.54062 -14.54019
 Alpha  occ. eigenvalues --  -14.52198 -10.59906 -10.59759 -10.59621 -10.55931
 Alpha  occ. eigenvalues --  -10.55918 -10.55631 -10.53911 -10.53795 -10.49468
 Alpha  occ. eigenvalues --  -10.49405 -10.48414 -10.48056 -10.47619 -10.46657
 Alpha  occ. eigenvalues --  -10.46636 -10.35305  -1.43732  -1.43496  -1.43363
 Alpha  occ. eigenvalues --   -1.42378  -1.42214  -1.42094  -1.39247  -1.38986
 Alpha  occ. eigenvalues --   -1.37642  -1.35946  -1.35765  -1.35109  -1.34226
 Alpha  occ. eigenvalues --   -1.33712  -1.33711  -1.33658  -1.33593  -1.33541
 Alpha  occ. eigenvalues --   -1.33476  -1.33232  -1.33058  -1.32891  -1.32614
 Alpha  occ. eigenvalues --   -1.32476  -1.31637  -1.31390  -1.30511  -1.24178
 Alpha  occ. eigenvalues --   -1.20814  -1.20681  -1.20557  -1.18815  -1.18724
 Alpha  occ. eigenvalues --   -1.10857  -1.09420  -1.07902  -0.94738  -0.93956
 Alpha  occ. eigenvalues --   -0.93352  -0.88623  -0.85862  -0.84765  -0.82996
 Alpha  occ. eigenvalues --   -0.82859  -0.82656  -0.81046  -0.79488  -0.78672
 Alpha  occ. eigenvalues --   -0.76825  -0.76277  -0.75759  -0.75218  -0.73909
 Alpha  occ. eigenvalues --   -0.73521  -0.73149  -0.72485  -0.72001  -0.71522
 Alpha  occ. eigenvalues --   -0.71211  -0.70837  -0.70651  -0.70390  -0.69891
 Alpha  occ. eigenvalues --   -0.69811  -0.69696  -0.69035  -0.68999  -0.68947
 Alpha  occ. eigenvalues --   -0.68162  -0.67779  -0.67335  -0.67072  -0.66595
 Alpha  occ. eigenvalues --   -0.66139  -0.65514  -0.64721  -0.64594  -0.64083
 Alpha  occ. eigenvalues --   -0.63825  -0.62442  -0.60502  -0.60007  -0.59273
 Alpha  occ. eigenvalues --   -0.59003  -0.58015  -0.57930  -0.57726  -0.57636
 Alpha  occ. eigenvalues --   -0.57472  -0.57278  -0.57174  -0.57060  -0.56715
 Alpha  occ. eigenvalues --   -0.56368  -0.56294  -0.56207  -0.56071  -0.55971
 Alpha  occ. eigenvalues --   -0.55787  -0.55563  -0.55450  -0.55117  -0.54957
 Alpha  occ. eigenvalues --   -0.54850  -0.54656  -0.54613  -0.54449  -0.53954
 Alpha  occ. eigenvalues --   -0.53851  -0.53523  -0.53281  -0.53155  -0.53045
 Alpha  occ. eigenvalues --   -0.52696  -0.52560  -0.52396  -0.52357  -0.52189
 Alpha  occ. eigenvalues --   -0.52076  -0.51955  -0.51771  -0.51723  -0.51203
 Alpha  occ. eigenvalues --   -0.51175  -0.51058  -0.50887  -0.50774  -0.50704
 Alpha  occ. eigenvalues --   -0.50445  -0.50141  -0.49991  -0.49941  -0.49818
 Alpha  occ. eigenvalues --   -0.49643  -0.49516  -0.49312  -0.49241  -0.48849
 Alpha  occ. eigenvalues --   -0.48664  -0.48440  -0.47997  -0.47573  -0.46201
 Alpha  occ. eigenvalues --   -0.45525  -0.44729  -0.44263  -0.43969  -0.40696
 Alpha  occ. eigenvalues --   -0.40264  -0.40135  -0.39067  -0.37841  -0.36560
 Alpha virt. eigenvalues --   -0.00302  -0.00228   0.05109   0.05556   0.06131
 Alpha virt. eigenvalues --    0.06637   0.07393   0.08236   0.10163   0.13134
 Alpha virt. eigenvalues --    0.14125   0.15062   0.15625   0.16411   0.17040

 Mulliken charges:
               1
     1  O   -0.496548
     2  C    0.849246
     3  N   -0.605693
     4  C   -0.127226
     5  C    0.592420
     6  F   -0.282187
     7  F   -0.266157
     8  C    0.414089
     9  F   -0.271636
    10  O   -0.512711
    11  C    0.996228
    12  F   -0.236838
    13  F   -0.246920
    14  F   -0.239611
    15  C    0.808091
    16  F   -0.235705
    17  F   -0.246647
    18  F   -0.250307
    19  C    0.853138
    20  O   -0.498533
    21  N   -0.646537
    22  C    0.760569
    23  F   -0.244008
    24  F   -0.267561
    25  C    0.437223
    26  F   -0.271688
    27  O   -0.494757
    28  C    0.978456
    29  F   -0.234025
    30  F   -0.235928
    31  F   -0.239887
    32  C    0.818639
    33  F   -0.246480
    34  F   -0.242380
    35  F   -0.257227
    36  C    0.868762
    37  O   -0.481457
    38  N   -0.652824
    39  C    0.749241
    40  F   -0.263261
    41  F   -0.245785
    42  C    0.435222
    43  F   -0.253911
    44  O   -0.512179
    45  C    0.997445
    46  F   -0.242411
    47  F   -0.238065
    48  F   -0.245178
    49  C    0.818396
    50  F   -0.250930
    51  F   -0.252385
    52  F   -0.233684
    53  H    0.199039
    54  H    0.193060
 Sum of Mulliken charges =   0.00000

 Dipole moment (field-independent basis, Debye):
    X=              2.2864    Y=              0.0618    Z=             -0.9600  Tot=              2.4805
 Quadrupole moment (field-independent basis, Debye-Ang):
   XX=           -278.5475   YY=           -281.8776   ZZ=           -272.0050
   XY=             -0.5694   XZ=             -6.9524   YZ=             -0.6503

 Normal termination of Gaussian 09 at Sun Mar  3 17:40:30 2024.
