 Gaussian 09, Revision D.01,
 Gaussian 09:  ES64L-G09RevD.01 24-Apr-2013

 ----------------------------------------------------------------------
 #p CAM-B3LYP/6-31G(d,p) SCRF=(PCM,Solvent=Generic,Read) NoSymm out=wfn
 ----------------------------------------------------------------------

 -------------------
 Title A1557670721_0
 -------------------
 Symbolic Z-matrix:
 Charge =  0 Multiplicity = 1

                          Input orientation:
 ---------------------------------------------------------------------
 Center     Atomic      Atomic             Coordinates (Angstroms)
 Number     Number       Type             X           Y           Z
 ---------------------------------------------------------------------
      1          6           0       -1.767928    5.378138    0.616766
      2          6           0       -1.642043    4.466023   -0.593001
      3          6           0       -1.103419    3.090516   -0.203102
      4          6           0       -0.978253    2.175438   -1.425248
      5          7           0       -0.456193    0.857816   -1.063006
      6          6           0       -1.347102   -0.093884   -0.611708
      7          8           0       -2.564039    0.097142   -0.609899
      8          7           0       -0.786667   -1.262317   -0.136759
      9          6           0       -1.679605   -2.275792    0.429085
     10          6           0       -2.177350   -3.243539   -0.649367
     11          6           0       -3.029410   -4.384662   -0.091734
     12          6           0       -4.347117   -3.919403    0.508323
     13          6           0        0.561641   -1.544665   -0.217108
     14          8           0        1.029644   -2.577504    0.260580
     15          7           0        1.348173   -0.607955   -0.836199
     16          6           0        2.782821   -0.848953   -0.857005
     17          9           0        3.338980   -0.115796   -1.866050
     18          9           0        3.001525   -2.136062   -1.254659
     19          6           0        3.524961   -0.562554    0.474925
     20          9           0        3.092650   -1.437675    1.429868
     21          8           0        3.159950    0.733514    0.962962
     22          6           0        3.961048    1.173717    2.026271
     23          9           0        3.341253    2.206398    2.627411
     24          9           0        4.146940    0.198533    2.928866
     25          9           0        5.142201    1.597325    1.549590
     26          6           0        5.009560   -0.812084    0.173764
     27          9           0        5.512770    0.104121   -0.683696
     28          9           0        5.243410   -2.032377   -0.355955
     29          9           0        5.762276   -0.741409    1.299137
     30          6           0        0.911169    0.674870   -1.048680
     31          8           0        1.685552    1.620333   -1.196395
     32          1           0       -2.454098    4.955033    1.357370
     33          1           0       -2.154794    6.356543    0.315179
     34          1           0       -0.795644    5.530291    1.096209
     35          1           0       -0.975083    4.932657   -1.327215
     36          1           0       -2.624542    4.360381   -1.067536
     37          1           0       -0.124990    3.200656    0.280469
     38          1           0       -1.768119    2.630426    0.538400
     39          1           0       -0.314516    2.633761   -2.168238
     40          1           0       -1.957808    2.056602   -1.903386
     41          1           0       -2.525469   -1.774704    0.912093
     42          1           0       -1.150836   -2.831606    1.212106
     43          1           0       -2.746553   -2.694640   -1.409704
     44          1           0       -1.314912   -3.680032   -1.168789
     45          1           0       -3.246356   -5.085975   -0.906309
     46          1           0       -2.460932   -4.941269    0.662331
     47          1           0       -4.188065   -3.310647    1.403094
     48          1           0       -4.922006   -3.331087   -0.213787
     49          1           0       -4.952674   -4.783644    0.799740
 ---------------------------------------------------------------------

 SCF Done:  E(RCAM-B3LYP) =  -1945.56805228     A.U. after   13 cycles

 Alpha  occ. eigenvalues --  -24.83570 -24.83461 -24.83346 -24.83203 -24.82864
 Alpha  occ. eigenvalues --  -24.82583 -24.82545 -24.82465 -24.82372 -19.32870
 Alpha  occ. eigenvalues --  -19.22892 -19.22798 -19.22437 -14.51813 -14.49233
 Alpha  occ. eigenvalues --  -14.49132 -10.59495 -10.55220 -10.52833 -10.48729
 Alpha  occ. eigenvalues --  -10.44693 -10.44662 -10.43594 -10.30795 -10.30767
 Alpha  occ. eigenvalues --  -10.26006 -10.25913 -10.25549 -10.25506 -10.24493
 Alpha  occ. eigenvalues --  -10.24471  -1.43155  -1.41587  -1.38612  -1.35408
 Alpha  occ. eigenvalues --   -1.33471  -1.33217  -1.32582  -1.31986  -1.31143
 Alpha  occ. eigenvalues --   -1.21425  -1.20395  -1.16324  -1.16073  -1.08415
 Alpha  occ. eigenvalues --   -1.06100  -1.04583  -0.93241  -0.89376  -0.88436
 Alpha  occ. eigenvalues --   -0.84733  -0.82720  -0.82416  -0.81646  -0.77788
 Alpha  occ. eigenvalues --   -0.77598  -0.75761  -0.74071  -0.73039  -0.72621
 Alpha  occ. eigenvalues --   -0.71614  -0.71037  -0.70330  -0.69497  -0.68370
 Alpha  occ. eigenvalues --   -0.67353  -0.66641  -0.66264  -0.66179  -0.65384
 Alpha  occ. eigenvalues --   -0.64195  -0.60517  -0.59706  -0.59333  -0.57413
 Alpha  occ. eigenvalues --   -0.56999  -0.56114  -0.55894  -0.55553  -0.55475
 Alpha  occ. eigenvalues --   -0.55084  -0.54858  -0.54663  -0.54451  -0.53693
 Alpha  occ. eigenvalues --   -0.53354  -0.52987  -0.52806  -0.52768  -0.52107
 Alpha  occ. eigenvalues --   -0.51900  -0.51674  -0.51048  -0.50552  -0.50279
 Alpha  occ. eigenvalues --   -0.49923  -0.49684  -0.49361  -0.48938  -0.48745
 Alpha  occ. eigenvalues --   -0.48495  -0.48153  -0.47746  -0.46063  -0.45606
 Alpha  occ. eigenvalues --   -0.45441  -0.44388  -0.43576  -0.42248  -0.41535
 Alpha  occ. eigenvalues --   -0.40381  -0.40303  -0.39736  -0.39208  -0.39118
 Alpha  occ. eigenvalues --   -0.38579  -0.38232  -0.37385  -0.35394  -0.34827
 Alpha  occ. eigenvalues --   -0.34250
 Alpha virt. eigenvalues --    0.01853   0.02672   0.06055   0.09463   0.12606
 Alpha virt. eigenvalues --    0.13202   0.14511   0.14782   0.16394   0.16905
 Alpha virt. eigenvalues --    0.17328   0.17764   0.18035   0.18301   0.18825

 Mulliken charges:
               1
     1  C   -0.322758
     2  C   -0.183963
     3  C   -0.179399
     4  C   -0.058834
     5  N   -0.575919
     6  C    0.828013
     7  O   -0.529179
     8  N   -0.580999
     9  C   -0.056370
    10  C   -0.181964
    11  C   -0.187077
    12  C   -0.323303
    13  C    0.827073
    14  O   -0.514786
    15  N   -0.637691
    16  C    0.760199
    17  F   -0.257647
    18  F   -0.259140
    19  C    0.436467
    20  F   -0.256446
    21  O   -0.505019
    22  C    0.995321
    23  F   -0.240415
    24  F   -0.243479
    25  F   -0.243564
    26  C    0.812091
    27  F   -0.246521
    28  F   -0.244240
    29  F   -0.260785
    30  C    0.834594
    31  O   -0.510351
    32  H    0.107572
    33  H    0.105334
    34  H    0.108374
    35  H    0.104529
    36  H    0.103748
    37  H    0.115513
    38  H    0.111699
    39  H    0.145359
    40  H    0.148543
    41  H    0.148331
    42  H    0.148391
    43  H    0.113365
    44  H    0.110616
    45  H    0.104850
    46  H    0.103978
    47  H    0.107632
    48  H    0.110921
    49  H    0.107336
 Sum of Mulliken charges =   0.00000

 Dipole moment (field-independent basis, Debye):
    X=             -3.0267    Y=              0.4719    Z=             -0.0946  Tot=              3.0647
 Quadrupole moment (field-independent basis, Debye-Ang):
   XX=           -186.7345   YY=           -172.1301   ZZ=           -171.3288
   XY=              3.8395   XZ=              1.7070   YZ=              0.7920

 Normal termination of Gaussian 09 at Sun Mar  3 17:35:24 2024.
