 Gaussian 09, Revision D.01,
 Gaussian 09:  ES64L-G09RevD.01 24-Apr-2013

 ----------------------------------------------------------------------
 #p CAM-B3LYP/6-31G(d,p) SCRF=(PCM,Solvent=Generic,Read) NoSymm out=wfn
 ----------------------------------------------------------------------

 --------------------
 Title A1557670721_p1
 --------------------
 Symbolic Z-matrix:
 Charge =  1 Multiplicity = 2

                          Input orientation:
 ---------------------------------------------------------------------
 Center     Atomic      Atomic             Coordinates (Angstroms)
 Number     Number       Type             X           Y           Z
 ---------------------------------------------------------------------
      1          6           0       -1.767928    5.378138    0.616766
      2          6           0       -1.642043    4.466023   -0.593001
      3          6           0       -1.103419    3.090516   -0.203102
      4          6           0       -0.978253    2.175438   -1.425248
      5          7           0       -0.456193    0.857816   -1.063006
      6          6           0       -1.347102   -0.093884   -0.611708
      7          8           0       -2.564039    0.097142   -0.609899
      8          7           0       -0.786667   -1.262317   -0.136759
      9          6           0       -1.679605   -2.275792    0.429085
     10          6           0       -2.177350   -3.243539   -0.649367
     11          6           0       -3.029410   -4.384662   -0.091734
     12          6           0       -4.347117   -3.919403    0.508323
     13          6           0        0.561641   -1.544665   -0.217108
     14          8           0        1.029644   -2.577504    0.260580
     15          7           0        1.348173   -0.607955   -0.836199
     16          6           0        2.782821   -0.848953   -0.857005
     17          9           0        3.338980   -0.115796   -1.866050
     18          9           0        3.001525   -2.136062   -1.254659
     19          6           0        3.524961   -0.562554    0.474925
     20          9           0        3.092650   -1.437675    1.429868
     21          8           0        3.159950    0.733514    0.962962
     22          6           0        3.961048    1.173717    2.026271
     23          9           0        3.341253    2.206398    2.627411
     24          9           0        4.146940    0.198533    2.928866
     25          9           0        5.142201    1.597325    1.549590
     26          6           0        5.009560   -0.812084    0.173764
     27          9           0        5.512770    0.104121   -0.683696
     28          9           0        5.243410   -2.032377   -0.355955
     29          9           0        5.762276   -0.741409    1.299137
     30          6           0        0.911169    0.674870   -1.048680
     31          8           0        1.685552    1.620333   -1.196395
     32          1           0       -2.454098    4.955033    1.357370
     33          1           0       -2.154794    6.356543    0.315179
     34          1           0       -0.795644    5.530291    1.096209
     35          1           0       -0.975083    4.932657   -1.327215
     36          1           0       -2.624542    4.360381   -1.067536
     37          1           0       -0.124990    3.200656    0.280469
     38          1           0       -1.768119    2.630426    0.538400
     39          1           0       -0.314516    2.633761   -2.168238
     40          1           0       -1.957808    2.056602   -1.903386
     41          1           0       -2.525469   -1.774704    0.912093
     42          1           0       -1.150836   -2.831606    1.212106
     43          1           0       -2.746553   -2.694640   -1.409704
     44          1           0       -1.314912   -3.680032   -1.168789
     45          1           0       -3.246356   -5.085975   -0.906309
     46          1           0       -2.460932   -4.941269    0.662331
     47          1           0       -4.188065   -3.310647    1.403094
     48          1           0       -4.922006   -3.331087   -0.213787
     49          1           0       -4.952674   -4.783644    0.799740
 ---------------------------------------------------------------------

 SCF Done:  E(UCAM-B3LYP) =  -1945.25546540     A.U. after   35 cycles

 Alpha  occ. eigenvalues --  -24.86735 -24.86335 -24.85757 -24.85693 -24.85692
 Alpha  occ. eigenvalues --  -24.85479 -24.85378 -24.85086 -24.84692 -19.35984
 Alpha  occ. eigenvalues --  -19.34519 -19.30443 -19.30387 -14.64663 -14.58666
 Alpha  occ. eigenvalues --  -14.58638 -10.61924 -10.57645 -10.57299 -10.53824
 Alpha  occ. eigenvalues --  -10.52049 -10.51902 -10.51510 -10.39326 -10.36165
 Alpha  occ. eigenvalues --  -10.33060 -10.30250 -10.29970 -10.28413 -10.27752
 Alpha  occ. eigenvalues --  -10.26708  -1.45416  -1.43963  -1.42488  -1.38500
 Alpha  occ. eigenvalues --   -1.35650  -1.35643  -1.35350  -1.34388  -1.34111
 Alpha  occ. eigenvalues --   -1.30720  -1.25460  -1.24157  -1.23440  -1.17572
 Alpha  occ. eigenvalues --   -1.15058  -1.13434  -0.97285  -0.95914  -0.93516
 Alpha  occ. eigenvalues --   -0.90331  -0.89215  -0.88320  -0.84816  -0.83909
 Alpha  occ. eigenvalues --   -0.83296  -0.81033  -0.79929  -0.78289  -0.77026
 Alpha  occ. eigenvalues --   -0.75652  -0.75072  -0.73061  -0.72533  -0.72096
 Alpha  occ. eigenvalues --   -0.71050  -0.70778  -0.69839  -0.69559  -0.68989
 Alpha  occ. eigenvalues --   -0.68089  -0.67729  -0.66631  -0.63692  -0.63426
 Alpha  occ. eigenvalues --   -0.62558  -0.61916  -0.61431  -0.60763  -0.59945
 Alpha  occ. eigenvalues --   -0.59514  -0.59286  -0.59164  -0.58666  -0.58466
 Alpha  occ. eigenvalues --   -0.57950  -0.57476  -0.56969  -0.56509  -0.56131
 Alpha  occ. eigenvalues --   -0.55477  -0.54851  -0.54792  -0.54129  -0.53972
 Alpha  occ. eigenvalues --   -0.53888  -0.53704  -0.52930  -0.52576  -0.52121
 Alpha  occ. eigenvalues --   -0.51581  -0.51498  -0.51112  -0.50979  -0.50707
 Alpha  occ. eigenvalues --   -0.49129  -0.48796  -0.47947  -0.47598  -0.47299
 Alpha  occ. eigenvalues --   -0.47243  -0.45933  -0.45184  -0.44521  -0.44288
 Alpha  occ. eigenvalues --   -0.43933  -0.43064  -0.42512  -0.42451  -0.42284
 Alpha  occ. eigenvalues --   -0.41173
 Alpha virt. eigenvalues --   -0.06538  -0.05170   0.02300   0.03807   0.06222
 Alpha virt. eigenvalues --    0.08910   0.09637   0.10861   0.10984   0.11780
 Alpha virt. eigenvalues --    0.12559   0.13625   0.14067   0.14531   0.14938

  Beta  occ. eigenvalues --  -24.86725 -24.86333 -24.85757 -24.85692 -24.85691
  Beta  occ. eigenvalues --  -24.85479 -24.85378 -24.85086 -24.84692 -19.35982
  Beta  occ. eigenvalues --  -19.33876 -19.30446 -19.30153 -14.63556 -14.58687
  Beta  occ. eigenvalues --  -14.58271 -10.61924 -10.57646 -10.57298 -10.54030
  Beta  occ. eigenvalues --  -10.52051 -10.52007 -10.51594 -10.39282 -10.36151
  Beta  occ. eigenvalues --  -10.32894 -10.30192 -10.29942 -10.28402 -10.27724
  Beta  occ. eigenvalues --  -10.26707  -1.45415  -1.43961  -1.42481  -1.38495
  Beta  occ. eigenvalues --   -1.35645  -1.35637  -1.35347  -1.34385  -1.34111
  Beta  occ. eigenvalues --   -1.29898  -1.24745  -1.23765  -1.23413  -1.16413
  Beta  occ. eigenvalues --   -1.14298  -1.12699  -0.97137  -0.95535  -0.93277
  Beta  occ. eigenvalues --   -0.90164  -0.88995  -0.88179  -0.84788  -0.83624
  Beta  occ. eigenvalues --   -0.83037  -0.80821  -0.79737  -0.78127  -0.76733
  Beta  occ. eigenvalues --   -0.75608  -0.75051  -0.73039  -0.72381  -0.71364
  Beta  occ. eigenvalues --   -0.70910  -0.70766  -0.69682  -0.69335  -0.68865
  Beta  occ. eigenvalues --   -0.67944  -0.66768  -0.66066  -0.63027  -0.63013
  Beta  occ. eigenvalues --   -0.62382  -0.61355  -0.60392  -0.60205  -0.59717
  Beta  occ. eigenvalues --   -0.59412  -0.59014  -0.58803  -0.58531  -0.58242
  Beta  occ. eigenvalues --   -0.57904  -0.57463  -0.56816  -0.56404  -0.56082
  Beta  occ. eigenvalues --   -0.55129  -0.54773  -0.54324  -0.53940  -0.53860
  Beta  occ. eigenvalues --   -0.53553  -0.53346  -0.52917  -0.52539  -0.52101
  Beta  occ. eigenvalues --   -0.51515  -0.51236  -0.50986  -0.50601  -0.50019
  Beta  occ. eigenvalues --   -0.48883  -0.47875  -0.47456  -0.47235  -0.46965
  Beta  occ. eigenvalues --   -0.45568  -0.45238  -0.44179  -0.43929  -0.43040
  Beta  occ. eigenvalues --   -0.43009  -0.42386  -0.42212  -0.42066  -0.39756
  Beta virt. eigenvalues --   -0.28117  -0.05734  -0.04169   0.02312   0.04714
  Beta virt. eigenvalues --    0.06505   0.09082   0.09857   0.11024   0.11170
  Beta virt. eigenvalues --    0.11926   0.12703   0.13693   0.14162   0.14549

 Mulliken charges and spin densities:
               1          2
     1  C   -0.329519   0.012852
     2  C   -0.192817   0.015695
     3  C   -0.202124   0.087123
     4  C   -0.102522   0.014434
     5  N   -0.459711   0.500692
     6  C    0.860162  -0.063122
     7  O   -0.454596   0.003896
     8  N   -0.546276   0.180640
     9  C   -0.081818   0.003453
    10  C   -0.194771   0.027851
    11  C   -0.191234   0.006231
    12  C   -0.328145   0.000817
    13  C    0.864858  -0.047461
    14  O   -0.437107   0.092073
    15  N   -0.642064  -0.013276
    16  C    0.761864  -0.000769
    17  F   -0.247561   0.002129
    18  F   -0.244854   0.000427
    19  C    0.439669  -0.000490
    20  F   -0.250941   0.000468
    21  O   -0.516840   0.000418
    22  C    1.001400   0.000017
    23  F   -0.237538   0.000000
    24  F   -0.238796   0.000035
    25  F   -0.238372   0.000011
    26  C    0.820297  -0.000116
    27  F   -0.243079   0.000016
    28  F   -0.239735   0.000001
    29  F   -0.254301  -0.000031
    30  C    0.885274  -0.118696
    31  O   -0.376590   0.252156
    32  H    0.123159  -0.000496
    33  H    0.133869   0.007520
    34  H    0.123411  -0.000530
    35  H    0.131230  -0.000720
    36  H    0.131502  -0.000359
    37  H    0.155514  -0.001734
    38  H    0.156556  -0.003007
    39  H    0.213978   0.012088
    40  H    0.220568   0.016063
    41  H    0.182359   0.005218
    42  H    0.186776   0.003555
    43  H    0.132673  -0.000995
    44  H    0.132221  -0.000055
    45  H    0.126400   0.004873
    46  H    0.118284  -0.000283
    47  H    0.110468   0.000732
    48  H    0.116538  -0.000062
    49  H    0.122283   0.000720
 Sum of Mulliken charges =   1.00000   1.00000

 Dipole moment (field-independent basis, Debye):
    X=             -4.6798    Y=              2.8315    Z=             -3.0307  Tot=              6.2532
 Quadrupole moment (field-independent basis, Debye-Ang):
   XX=           -165.4006   YY=           -138.1883   ZZ=           -161.7283
   XY=              2.9769   XZ=              2.3712   YZ=             -3.3814

 Normal termination of Gaussian 09 at Sun Mar  3 17:37:29 2024.
