 Gaussian 09, Revision D.01,
 Gaussian 09:  ES64L-G09RevD.01 24-Apr-2013

 ----------------------------------------------------------------------
 #p CAM-B3LYP/6-31G(d,p) SCRF=(PCM,Solvent=Generic,Read) NoSymm out=wfn
 ----------------------------------------------------------------------

 -------------------
 Title A1181988622_0
 -------------------
 Symbolic Z-matrix:
 Charge =  0 Multiplicity = 1

                          Input orientation:
 ---------------------------------------------------------------------
 Center     Atomic      Atomic             Coordinates (Angstroms)
 Number     Number       Type             X           Y           Z
 ---------------------------------------------------------------------
      1          6           0       -3.351206    2.597203    0.677643
      2          6           0       -3.036790    1.295209    1.402629
      3          7           0       -2.000439    0.521128    0.719707
      4          6           0       -2.385146   -0.296169   -0.320791
      5          8           0       -3.563262   -0.424110   -0.656320
      6          7           0       -1.361318   -0.925868   -0.992548
      7          6           0       -1.704353   -1.724163   -2.158361
      8          6           0       -0.033658   -0.691226   -0.726038
      9          8           0        0.844741   -1.069958   -1.496382
     10          7           0        0.264614   -0.022976    0.426517
     11          6           0        1.649555    0.265111    0.783212
     12          9           0        1.970370    1.488345    0.267272
     13          9           0        1.690499    0.442409    2.145530
     14          6           0        2.827873   -0.716682    0.481119
     15          9           0        3.945995   -0.249130    1.140607
     16          8           0        3.271278   -0.921481   -0.859213
     17          6           0        3.612401    0.267128   -1.525770
     18          9           0        4.332551    1.086590   -0.741977
     19          9           0        2.503059    0.904127   -1.940442
     20          9           0        4.351659   -0.047445   -2.607726
     21          6           0        2.476032   -2.050589    1.141650
     22          9           0        1.352263   -2.611746    0.638122
     23          9           0        3.468957   -2.961061    0.983211
     24          9           0        2.272970   -1.927888    2.474245
     25          6           0       -0.678492    0.793747    1.014464
     26          8           0       -0.379837    1.742430    1.739818
     27          1           0       -2.464351    3.234856    0.605244
     28          1           0       -3.708421    2.407690   -0.339693
     29          1           0       -4.127424    3.151549    1.214056
     30          1           0       -2.711057    1.515782    2.425731
     31          1           0       -3.948575    0.691818    1.479916
     32          1           0       -0.937170   -2.478638   -2.356533
     33          1           0       -1.779102   -1.056200   -3.022384
     34          1           0       -2.664217   -2.229791   -2.016512
 ---------------------------------------------------------------------

 SCF Done:  E(RCAM-B3LYP) =  -1749.09977762     A.U. after   13 cycles

 Alpha  occ. eigenvalues --  -24.83611 -24.83251 -24.82899 -24.82889 -24.82751
 Alpha  occ. eigenvalues --  -24.82377 -24.82297 -24.82237 -24.82094 -19.32022
 Alpha  occ. eigenvalues --  -19.23247 -19.23213 -19.22645 -14.52314 -14.49753
 Alpha  occ. eigenvalues --  -14.49425 -10.58892 -10.55349 -10.53166 -10.49096
 Alpha  occ. eigenvalues --  -10.45011 -10.44997 -10.43795 -10.31194 -10.30816
 Alpha  occ. eigenvalues --  -10.25663  -1.42351  -1.41773  -1.38428  -1.34737
 Alpha  occ. eigenvalues --   -1.32785  -1.32528  -1.32431  -1.32186  -1.31068
 Alpha  occ. eigenvalues --   -1.21845  -1.19728  -1.16871  -1.16350  -1.08778
 Alpha  occ. eigenvalues --   -1.06451  -1.04942  -0.93316  -0.87025  -0.84397
 Alpha  occ. eigenvalues --   -0.82914  -0.80539  -0.79233  -0.77282  -0.75261
 Alpha  occ. eigenvalues --   -0.73907  -0.72041  -0.71642  -0.70409  -0.69772
 Alpha  occ. eigenvalues --   -0.69229  -0.68572  -0.67469  -0.66194  -0.65819
 Alpha  occ. eigenvalues --   -0.64745  -0.61778  -0.59609  -0.59434  -0.57122
 Alpha  occ. eigenvalues --   -0.56375  -0.56237  -0.55936  -0.55677  -0.55349
 Alpha  occ. eigenvalues --   -0.54897  -0.54513  -0.54291  -0.53760  -0.53571
 Alpha  occ. eigenvalues --   -0.53269  -0.52725  -0.52392  -0.51824  -0.51356
 Alpha  occ. eigenvalues --   -0.51139  -0.50862  -0.50574  -0.49973  -0.49875
 Alpha  occ. eigenvalues --   -0.49453  -0.48558  -0.48023  -0.47736  -0.47508
 Alpha  occ. eigenvalues --   -0.46228  -0.45578  -0.44745  -0.43676  -0.42090
 Alpha  occ. eigenvalues --   -0.39564  -0.38972  -0.37871  -0.36008  -0.35158
 Alpha  occ. eigenvalues --   -0.35008
 Alpha virt. eigenvalues --    0.01264   0.02583   0.05988   0.08563   0.12355
 Alpha virt. eigenvalues --    0.13802   0.15173   0.16504   0.17355   0.17728
 Alpha virt. eigenvalues --    0.18029   0.19433   0.19955   0.20223   0.21965

 Mulliken charges:
               1
     1  C   -0.329758
     2  C   -0.060421
     3  N   -0.567357
     4  C    0.821747
     5  O   -0.524275
     6  N   -0.565664
     7  C   -0.182361
     8  C    0.826821
     9  O   -0.518452
    10  N   -0.618467
    11  C    0.776799
    12  F   -0.264600
    13  F   -0.272273
    14  C    0.413089
    15  F   -0.277043
    16  O   -0.489962
    17  C    0.999196
    18  F   -0.247206
    19  F   -0.244566
    20  F   -0.243503
    21  C    0.805950
    22  F   -0.240690
    23  F   -0.250342
    24  F   -0.243622
    25  C    0.830222
    26  O   -0.500122
    27  H    0.129243
    28  H    0.126391
    29  H    0.126359
    30  H    0.150556
    31  H    0.152471
    32  H    0.161859
    33  H    0.156320
    34  H    0.163664
 Sum of Mulliken charges =   0.00000

 Dipole moment (field-independent basis, Debye):
    X=             -3.0798    Y=             -0.8581    Z=             -0.5742  Tot=              3.2483
 Quadrupole moment (field-independent basis, Debye-Ang):
   XX=           -148.6161   YY=           -141.1669   ZZ=           -141.5839
   XY=             -1.4954   XZ=             -2.6211   YZ=             -1.5235

 Normal termination of Gaussian 09 at Sun Mar  3 17:54:31 2024.
