 Gaussian 09, Revision D.01,
 Gaussian 09:  ES64L-G09RevD.01 24-Apr-2013

 ----------------------------------------------------------------------
 #p CAM-B3LYP/6-31G(d,p) SCRF=(PCM,Solvent=Generic,Read) NoSymm out=wfn
 ----------------------------------------------------------------------

 --------------------
 Title A1181988622_p1
 --------------------
 Symbolic Z-matrix:
 Charge =  1 Multiplicity = 2

                          Input orientation:
 ---------------------------------------------------------------------
 Center     Atomic      Atomic             Coordinates (Angstroms)
 Number     Number       Type             X           Y           Z
 ---------------------------------------------------------------------
      1          6           0       -3.351206    2.597203    0.677643
      2          6           0       -3.036790    1.295209    1.402629
      3          7           0       -2.000439    0.521128    0.719707
      4          6           0       -2.385146   -0.296169   -0.320791
      5          8           0       -3.563262   -0.424110   -0.656320
      6          7           0       -1.361318   -0.925868   -0.992548
      7          6           0       -1.704353   -1.724163   -2.158361
      8          6           0       -0.033658   -0.691226   -0.726038
      9          8           0        0.844741   -1.069958   -1.496382
     10          7           0        0.264614   -0.022976    0.426517
     11          6           0        1.649555    0.265111    0.783212
     12          9           0        1.970370    1.488345    0.267272
     13          9           0        1.690499    0.442409    2.145530
     14          6           0        2.827873   -0.716682    0.481119
     15          9           0        3.945995   -0.249130    1.140607
     16          8           0        3.271278   -0.921481   -0.859213
     17          6           0        3.612401    0.267128   -1.525770
     18          9           0        4.332551    1.086590   -0.741977
     19          9           0        2.503059    0.904127   -1.940442
     20          9           0        4.351659   -0.047445   -2.607726
     21          6           0        2.476032   -2.050589    1.141650
     22          9           0        1.352263   -2.611746    0.638122
     23          9           0        3.468957   -2.961061    0.983211
     24          9           0        2.272970   -1.927888    2.474245
     25          6           0       -0.678492    0.793747    1.014464
     26          8           0       -0.379837    1.742430    1.739818
     27          1           0       -2.464351    3.234856    0.605244
     28          1           0       -3.708421    2.407690   -0.339693
     29          1           0       -4.127424    3.151549    1.214056
     30          1           0       -2.711057    1.515782    2.425731
     31          1           0       -3.948575    0.691818    1.479916
     32          1           0       -0.937170   -2.478638   -2.356533
     33          1           0       -1.779102   -1.056200   -3.022384
     34          1           0       -2.664217   -2.229791   -2.016512
 ---------------------------------------------------------------------

 SCF Done:  E(UCAM-B3LYP) =  -1748.77212566     A.U. after   75 cycles

 Alpha  occ. eigenvalues --  -24.86610 -24.86453 -24.86211 -24.85735 -24.85126
 Alpha  occ. eigenvalues --  -24.85106 -24.85036 -24.85033 -24.84986 -19.42733
 Alpha  occ. eigenvalues --  -19.34953 -19.32722 -19.31158 -14.61034 -14.59913
 Alpha  occ. eigenvalues --  -14.59461 -10.61345 -10.58038 -10.57634 -10.55550
 Alpha  occ. eigenvalues --  -10.53039 -10.52548 -10.52309 -10.37366 -10.37280
 Alpha  occ. eigenvalues --  -10.30199  -1.44887  -1.44330  -1.42433  -1.37514
 Alpha  occ. eigenvalues --   -1.35695  -1.35355  -1.34901  -1.34562  -1.34340
 Alpha  occ. eigenvalues --   -1.33931  -1.28550  -1.25144  -1.22573  -1.18585
 Alpha  occ. eigenvalues --   -1.15343  -1.14358  -0.97073  -0.93557  -0.91277
 Alpha  occ. eigenvalues --   -0.90364  -0.85771  -0.84092  -0.83103  -0.82387
 Alpha  occ. eigenvalues --   -0.79769  -0.77617  -0.75455  -0.74604  -0.73079
 Alpha  occ. eigenvalues --   -0.72258  -0.71446  -0.71393  -0.70029  -0.69840
 Alpha  occ. eigenvalues --   -0.69669  -0.68961  -0.67722  -0.65691  -0.64270
 Alpha  occ. eigenvalues --   -0.63500  -0.62422  -0.62039  -0.61948  -0.61041
 Alpha  occ. eigenvalues --   -0.59706  -0.59202  -0.58897  -0.58419  -0.57452
 Alpha  occ. eigenvalues --   -0.57274  -0.57130  -0.56796  -0.56304  -0.55847
 Alpha  occ. eigenvalues --   -0.55305  -0.54795  -0.54491  -0.54330  -0.54016
 Alpha  occ. eigenvalues --   -0.53822  -0.53081  -0.52711  -0.52440  -0.51961
 Alpha  occ. eigenvalues --   -0.51378  -0.51100  -0.49540  -0.49149  -0.47979
 Alpha  occ. eigenvalues --   -0.47311  -0.47043  -0.46317  -0.45154  -0.44090
 Alpha  occ. eigenvalues --   -0.43274
 Alpha virt. eigenvalues --   -0.08770  -0.05085   0.01714   0.02287   0.07051
 Alpha virt. eigenvalues --    0.08703   0.09529   0.10660   0.11361   0.12708
 Alpha virt. eigenvalues --    0.13955   0.14310   0.15708   0.16343   0.16927

  Beta  occ. eigenvalues --  -24.86608 -24.86439 -24.86204 -24.85735 -24.85123
  Beta  occ. eigenvalues --  -24.85106 -24.85036 -24.85033 -24.84986 -19.41041
  Beta  occ. eigenvalues --  -19.34946 -19.32355 -19.31003 -14.60673 -14.59698
  Beta  occ. eigenvalues --  -14.59415 -10.61345 -10.58038 -10.57637 -10.55783
  Beta  occ. eigenvalues --  -10.53093 -10.52605 -10.52307 -10.37353 -10.37271
  Beta  occ. eigenvalues --  -10.30182  -1.44883  -1.44329  -1.42414  -1.37511
  Beta  occ. eigenvalues --   -1.35681  -1.35348  -1.34897  -1.34561  -1.34335
  Beta  occ. eigenvalues --   -1.31674  -1.27460  -1.24685  -1.22545  -1.17445
  Beta  occ. eigenvalues --   -1.14864  -1.13770  -0.97038  -0.93422  -0.91089
  Beta  occ. eigenvalues --   -0.89969  -0.85514  -0.83740  -0.83061  -0.81959
  Beta  occ. eigenvalues --   -0.79583  -0.77550  -0.75329  -0.74575  -0.73045
  Beta  occ. eigenvalues --   -0.72243  -0.71392  -0.70859  -0.69941  -0.69279
  Beta  occ. eigenvalues --   -0.68926  -0.68014  -0.67650  -0.65242  -0.63165
  Beta  occ. eigenvalues --   -0.62953  -0.62198  -0.61571  -0.61323  -0.60324
  Beta  occ. eigenvalues --   -0.59637  -0.59056  -0.58441  -0.58335  -0.57391
  Beta  occ. eigenvalues --   -0.57130  -0.56829  -0.56178  -0.55878  -0.55427
  Beta  occ. eigenvalues --   -0.54704  -0.54462  -0.54235  -0.53973  -0.53737
  Beta  occ. eigenvalues --   -0.53069  -0.52539  -0.52275  -0.51957  -0.51321
  Beta  occ. eigenvalues --   -0.51089  -0.49938  -0.48852  -0.48198  -0.47213
  Beta  occ. eigenvalues --   -0.46788  -0.45411  -0.44266  -0.43083  -0.41106
  Beta virt. eigenvalues --   -0.29840  -0.07503  -0.04811   0.02130   0.02345
  Beta virt. eigenvalues --    0.07150   0.08827   0.09659   0.10823   0.11444
  Beta virt. eigenvalues --    0.12843   0.13978   0.14397   0.15785   0.16415

 Mulliken charges and spin densities:
               1          2
     1  C   -0.333498   0.010272
     2  C   -0.111208   0.002800
     3  N   -0.542779   0.107193
     4  C    0.919689  -0.131749
     5  O   -0.242480   0.650226
     6  N   -0.531844   0.169804
     7  C   -0.218025   0.004401
     8  C    0.870127  -0.032749
     9  O   -0.442376   0.061299
    10  N   -0.616164   0.022363
    11  C    0.778115  -0.001665
    12  F   -0.249722   0.002155
    13  F   -0.259128   0.003100
    14  C    0.412740   0.000034
    15  F   -0.264803   0.000073
    16  O   -0.487322   0.002037
    17  C    1.004130  -0.000188
    18  F   -0.241911   0.000030
    19  F   -0.247645   0.000597
    20  F   -0.236895   0.000011
    21  C    0.811426  -0.000055
    22  F   -0.243902   0.000315
    23  F   -0.242090   0.000012
    24  F   -0.238549   0.000037
    25  C    0.888442  -0.035318
    26  O   -0.400157   0.138984
    27  H    0.151384  -0.000439
    28  H    0.139158   0.000145
    29  H    0.163871   0.000869
    30  H    0.200324   0.005040
    31  H    0.185723  -0.001006
    32  H    0.210637  -0.000155
    33  H    0.211096   0.014256
    34  H    0.203638   0.007270
 Sum of Mulliken charges =   1.00000   1.00000

 Dipole moment (field-independent basis, Debye):
    X=            -11.4829    Y=             -1.1857    Z=             -1.6405  Tot=             11.6600
 Quadrupole moment (field-independent basis, Debye-Ang):
   XX=           -111.0152   YY=           -130.2844   ZZ=           -129.1781
   XY=             -1.7060   XZ=              0.5040   YZ=              5.1822

 Normal termination of Gaussian 09 at Sun Mar  3 17:58:03 2024.
