 Gaussian 09, Revision D.01,
 Gaussian 09:  ES64L-G09RevD.01 24-Apr-2013

 ----------------------------------------------------------------------
 #p CAM-B3LYP/6-31G(d,p) opt SCRF=(PCM,Solvent=Generic,Read) NoSymm out
 =wfn
 ----------------------------------------------------------------------

 ------------
 Title A2_neu
 ------------
 Symbolic Z-matrix:
 Charge =  0 Multiplicity = 1

 SCF Done:  E(RCAM-B3LYP) =  -1828.51017427     A.U. after   13 cycles
 SCF Done:  E(RCAM-B3LYP) =  -1828.53231902     A.U. after   12 cycles
 SCF Done:  E(RCAM-B3LYP) =  -1828.53865605     A.U. after   12 cycles
 SCF Done:  E(RCAM-B3LYP) =  -1828.53977364     A.U. after   12 cycles
 SCF Done:  E(RCAM-B3LYP) =  -1828.54165227     A.U. after   12 cycles
 SCF Done:  E(RCAM-B3LYP) =  -1828.54235364     A.U. after   12 cycles
 SCF Done:  E(RCAM-B3LYP) =  -1828.54299830     A.U. after   10 cycles
 SCF Done:  E(RCAM-B3LYP) =  -1828.54318217     A.U. after   11 cycles
 SCF Done:  E(RCAM-B3LYP) =  -1828.54320061     A.U. after   11 cycles
 SCF Done:  E(RCAM-B3LYP) =  -1828.54334995     A.U. after   11 cycles
 SCF Done:  E(RCAM-B3LYP) =  -1828.54437116     A.U. after   11 cycles
 SCF Done:  E(RCAM-B3LYP) =  -1828.54459639     A.U. after   10 cycles
 SCF Done:  E(RCAM-B3LYP) =  -1828.54472610     A.U. after   11 cycles
 SCF Done:  E(RCAM-B3LYP) =  -1828.54476933     A.U. after   11 cycles
 SCF Done:  E(RCAM-B3LYP) =  -1828.54478586     A.U. after    9 cycles
 SCF Done:  E(RCAM-B3LYP) =  -1828.54480621     A.U. after   10 cycles
 SCF Done:  E(RCAM-B3LYP) =  -1828.54481229     A.U. after   10 cycles
 SCF Done:  E(RCAM-B3LYP) =  -1828.54481327     A.U. after    8 cycles
 SCF Done:  E(RCAM-B3LYP) =  -1828.54481353     A.U. after    7 cycles
 SCF Done:  E(RCAM-B3LYP) =  -1828.54481358     A.U. after    7 cycles
 Optimization completed.
    -- Stationary point found.

                          Input orientation:
 ---------------------------------------------------------------------
 Center     Atomic      Atomic             Coordinates (Angstroms)
 Number     Number       Type             X           Y           Z
 ---------------------------------------------------------------------
      1          9           0        0.770675    1.188970    1.352310
      2          6           0        0.749325    0.002894    0.682151
      3          6           0        2.047237   -0.090154   -0.141370
      4          9           0        2.095398   -1.285842   -0.757509
      5          6           0        2.318575    1.002528   -1.198274
      6          9           0        1.450375    0.936888   -2.202806
      7          9           0        2.259228    2.209712   -0.641985
      8          9           0        3.544545    0.809935   -1.682663
      9          9           0        3.065131   -0.000672    0.742369
     10          6           0       -0.599199   -0.138696   -0.095186
     11          8           0       -1.403118   -0.990306    0.650390
     12          6           0       -0.635043   -1.909595    1.335067
     13          9           0       -1.322068   -2.346217    2.380485
     14          9           0       -0.325344   -2.952103    0.550081
     15          6           0        0.650189   -1.155425    1.731828
     16          9           0        0.485670   -0.625962    2.950308
     17          9           0        1.704029   -1.980227    1.750223
     18          6           0       -1.369334    1.179996   -0.313958
     19          9           0       -0.510309    2.095583   -0.795533
     20          6           0       -2.518260    1.030515   -1.332893
     21          8           0       -3.521983    0.337649   -0.807352
     22          8           0       -2.474315    1.500012   -2.433929
     23          9           0       -1.858499    1.604972    0.865689
     24          9           0       -0.381720   -0.687224   -1.326040
     25          1           0       -4.221188    0.262768   -1.478595
 ---------------------------------------------------------------------

 Alpha  occ. eigenvalues --  -24.83454 -24.83243 -24.83182 -24.83161 -24.83126
 Alpha  occ. eigenvalues --  -24.83037 -24.82910 -24.82796 -24.82785 -24.82745
 Alpha  occ. eigenvalues --  -24.82654 -24.82370 -24.82196 -19.32234 -19.30672
 Alpha  occ. eigenvalues --  -19.25294 -10.54295 -10.52501 -10.48869 -10.48651
 Alpha  occ. eigenvalues --  -10.48030 -10.47299 -10.43783 -10.43056  -1.42841
 Alpha  occ. eigenvalues --   -1.41263  -1.39044  -1.38542  -1.38165  -1.35660
 Alpha  occ. eigenvalues --   -1.34981  -1.33595  -1.33374  -1.33000  -1.32312
 Alpha  occ. eigenvalues --   -1.32152  -1.31936  -1.22992  -1.22634  -1.13967
 Alpha  occ. eigenvalues --   -0.95081  -0.91572  -0.88267  -0.84340  -0.80289
 Alpha  occ. eigenvalues --   -0.77553  -0.75804  -0.73675  -0.72089  -0.71304
 Alpha  occ. eigenvalues --   -0.70102  -0.69990  -0.69653  -0.69005  -0.67579
 Alpha  occ. eigenvalues --   -0.67434  -0.66878  -0.66060  -0.65339  -0.64557
 Alpha  occ. eigenvalues --   -0.64081  -0.62524  -0.58694  -0.58184  -0.57793
 Alpha  occ. eigenvalues --   -0.57009  -0.56215  -0.56153  -0.55614  -0.55265
 Alpha  occ. eigenvalues --   -0.54913  -0.54773  -0.54213  -0.53960  -0.53679
 Alpha  occ. eigenvalues --   -0.53339  -0.52750  -0.52557  -0.52311  -0.51918
 Alpha  occ. eigenvalues --   -0.51457  -0.51213  -0.50779  -0.50473  -0.50302
 Alpha  occ. eigenvalues --   -0.49656  -0.49227  -0.49019  -0.47462  -0.46877
 Alpha  occ. eigenvalues --   -0.44632  -0.43198  -0.41999  -0.41568  -0.37707
 Alpha virt. eigenvalues --    0.00957   0.05342   0.09308   0.09757   0.11446
 Alpha virt. eigenvalues --    0.13409   0.15468   0.17809   0.18680   0.22563
 Alpha virt. eigenvalues --    0.23341   0.24552   0.25429   0.26133   0.26756

 Mulliken charges:
               1
     1  F   -0.284579
     2  C    0.148243
     3  C    0.527788
     4  F   -0.266495
     5  C    0.782259
     6  F   -0.235343
     7  F   -0.237985
     8  F   -0.241653
     9  F   -0.272727
    10  C    0.470298
    11  O   -0.475556
    12  C    0.754025
    13  F   -0.236504
    14  F   -0.250282
    15  C    0.538626
    16  F   -0.251372
    17  F   -0.248165
    18  C    0.590956
    19  F   -0.266627
    20  C    0.521915
    21  O   -0.461492
    22  O   -0.420925
    23  F   -0.263803
    24  F   -0.279323
    25  H    0.358722
 Sum of Mulliken charges =   0.00000

 Dipole moment (field-independent basis, Debye):
    X=             -2.2174    Y=             -0.9556    Z=              0.1669  Tot=              2.4203
 Quadrupole moment (field-independent basis, Debye-Ang):
   XX=           -113.0996   YY=           -128.4609   ZZ=           -129.8982
   XY=              1.2063   XZ=              3.7748   YZ=              2.8139

 Normal termination of Gaussian 09 at Thu Feb  6 02:48:06 2025.
