 Gaussian 09, Revision D.01,
 Gaussian 09:  ES64L-G09RevD.01 24-Apr-2013

 ----------------------------------------------------------------------
 #p CAM-B3LYP/6-31G(d,p) SCRF=(PCM,Solvent=Generic,Read) NoSymm out=wfn
 ----------------------------------------------------------------------

 ------------------
 Title A124553250_0
 ------------------
 Symbolic Z-matrix:
 Charge =  0 Multiplicity = 1

                          Input orientation:
 ---------------------------------------------------------------------
 Center     Atomic      Atomic             Coordinates (Angstroms)
 Number     Number       Type             X           Y           Z
 ---------------------------------------------------------------------
      1          8           0       -2.341172    0.587056   -2.645464
      2          6           0       -1.230936    0.395850   -2.162775
      3          8           0       -0.153586    0.989111   -2.723231
      4          6           0        1.038030    1.003669   -2.085451
      5          8           0        2.038446    1.374797   -2.687493
      6          7           0        1.045470    0.623911   -0.771629
      7          6           0        2.286245    0.792714   -0.031241
      8          9           0        2.014654    0.890865    1.296764
      9          9           0        2.765051    2.042381   -0.336039
     10          6           0        3.427185   -0.234693   -0.296200
     11          9           0        3.355945   -0.614340   -1.620920
     12          8           0        4.748089    0.323625   -0.206808
     13          6           0        5.183271    0.573961    1.104708
     14          9           0        6.304073    1.314114    1.055571
     15          9           0        4.249941    1.243264    1.792172
     16          9           0        5.454857   -0.586522    1.719599
     17          6           0        3.190840   -1.505873    0.518340
     18          9           0        2.074320   -2.148602    0.106320
     19          9           0        4.214065   -2.379672    0.350275
     20          9           0        3.077942   -1.273335    1.839566
     21          6           0        0.062716   -0.172636   -0.270206
     22          8           0        0.138400   -0.649077    0.857229
     23          7           0       -1.002993   -0.409225   -1.083437
     24          6           0       -2.128957   -1.159859   -0.546095
     25          9           0       -1.640223   -2.288149    0.042666
     26          9           0       -2.864790   -1.640525   -1.588499
     27          6           0       -3.043375   -0.388588    0.442163
     28          9           0       -2.326419   -0.081565    1.562602
     29          8           0       -3.402523    0.874709   -0.126471
     30          6           0       -4.425158    1.529348    0.578740
     31          9           0       -4.453691    2.816316    0.188082
     32          9           0       -5.603562    0.959204    0.284988
     33          9           0       -4.201491    1.483649    1.900550
     34          6           0       -4.177346   -1.362576    0.794083
     35          9           0       -3.724683   -2.551863    1.246297
     36          9           0       -4.974317   -0.865646    1.770216
     37          9           0       -4.974319   -1.610607   -0.268974
 ---------------------------------------------------------------------

 SCF Done:  E(RCAM-B3LYP) =  -2776.36721773     A.U. after   13 cycles

 Alpha  occ. eigenvalues --  -24.84484 -24.84256 -24.84045 -24.84025 -24.83977
 Alpha  occ. eigenvalues --  -24.83968 -24.83877 -24.83845 -24.83833 -24.83828
 Alpha  occ. eigenvalues --  -24.83791 -24.83779 -24.83691 -24.83447 -24.83423
 Alpha  occ. eigenvalues --  -24.83175 -24.83137 -24.83091 -19.36268 -19.33671
 Alpha  occ. eigenvalues --  -19.33617 -19.26422 -19.26408 -19.25614 -14.55106
 Alpha  occ. eigenvalues --  -14.54909 -10.60106 -10.60018 -10.55913 -10.55899
 Alpha  occ. eigenvalues --  -10.54586 -10.54457 -10.49854 -10.49821 -10.49790
 Alpha  occ. eigenvalues --  -10.49744 -10.48203  -1.43945  -1.43664  -1.42375
 Alpha  occ. eigenvalues --   -1.42217  -1.40097  -1.39816  -1.36295  -1.36072
 Alpha  occ. eigenvalues --   -1.34424  -1.33969  -1.33944  -1.33722  -1.33346
 Alpha  occ. eigenvalues --   -1.33338  -1.32751  -1.32585  -1.32453  -1.32233
 Alpha  occ. eigenvalues --   -1.31150  -1.21969  -1.21240  -1.21056  -1.20111
 Alpha  occ. eigenvalues --   -1.15366  -1.11824  -1.10752  -0.94561  -0.93773
 Alpha  occ. eigenvalues --   -0.87577  -0.86578  -0.82972  -0.82782  -0.82330
 Alpha  occ. eigenvalues --   -0.81000  -0.78245  -0.77798  -0.76549  -0.74561
 Alpha  occ. eigenvalues --   -0.73880  -0.73355  -0.72617  -0.71849  -0.71075
 Alpha  occ. eigenvalues --   -0.70762  -0.70399  -0.69764  -0.69262  -0.68997
 Alpha  occ. eigenvalues --   -0.68485  -0.68249  -0.67664  -0.67305  -0.66059
 Alpha  occ. eigenvalues --   -0.65305  -0.64994  -0.64665  -0.60494  -0.59961
 Alpha  occ. eigenvalues --   -0.59312  -0.58280  -0.58161  -0.57888  -0.57709
 Alpha  occ. eigenvalues --   -0.57570  -0.57264  -0.56847  -0.56763  -0.56582
 Alpha  occ. eigenvalues --   -0.56111  -0.55934  -0.55880  -0.55782  -0.55514
 Alpha  occ. eigenvalues --   -0.55404  -0.55130  -0.54826  -0.54547  -0.54345
 Alpha  occ. eigenvalues --   -0.54084  -0.53606  -0.53147  -0.52928  -0.52786
 Alpha  occ. eigenvalues --   -0.52363  -0.52057  -0.51815  -0.51584  -0.51177
 Alpha  occ. eigenvalues --   -0.51110  -0.51001  -0.50733  -0.50520  -0.50354
 Alpha  occ. eigenvalues --   -0.50303  -0.49646  -0.49493  -0.49385  -0.48955
 Alpha  occ. eigenvalues --   -0.48309  -0.46476  -0.45363  -0.44702  -0.43518
 Alpha  occ. eigenvalues --   -0.42557  -0.41354  -0.40835  -0.39648  -0.37993
 Alpha virt. eigenvalues --   -0.01250  -0.01027   0.04277   0.04864   0.05895
 Alpha virt. eigenvalues --    0.06942   0.09484   0.12836   0.14018   0.15806
 Alpha virt. eigenvalues --    0.16439   0.17631   0.18838   0.19443   0.19990

 Mulliken charges:
               1
     1  O   -0.443042
     2  C    0.805094
     3  O   -0.433508
     4  C    0.808866
     5  O   -0.446631
     6  N   -0.612979
     7  C    0.765240
     8  F   -0.241773
     9  F   -0.269089
    10  C    0.435420
    11  F   -0.270390
    12  O   -0.493469
    13  C    0.980381
    14  F   -0.234502
    15  F   -0.235802
    16  F   -0.239245
    17  C    0.818738
    18  F   -0.243098
    19  F   -0.255286
    20  F   -0.241458
    21  C    0.858491
    22  O   -0.478063
    23  N   -0.623881
    24  C    0.765570
    25  F   -0.251118
    26  F   -0.250444
    27  C    0.435836
    28  F   -0.253569
    29  O   -0.506679
    30  C    0.998356
    31  F   -0.237313
    32  F   -0.241185
    33  F   -0.241804
    34  C    0.816089
    35  F   -0.242312
    36  F   -0.256861
    37  F   -0.244580
 Sum of Mulliken charges =   0.00000

 Dipole moment (field-independent basis, Debye):
    X=              0.0416    Y=             -0.2887    Z=              1.2025  Tot=              1.2374
 Quadrupole moment (field-independent basis, Debye-Ang):
   XX=           -200.1838   YY=           -194.1829   ZZ=           -204.9189
   XY=             -2.4163   XZ=              0.5959   YZ=              7.5209

 Normal termination of Gaussian 09 at Sun Mar  3 18:19:47 2024.
