 Gaussian 09, Revision D.01,
 Gaussian 09:  ES64L-G09RevD.01 24-Apr-2013

 ----------------------------------------------------------------------
 #p CAM-B3LYP/6-31G(d,p) SCRF=(PCM,Solvent=Generic,Read) NoSymm out=wfn
 ----------------------------------------------------------------------

 -------------------
 Title A124553250_p1
 -------------------
 Symbolic Z-matrix:
 Charge =  1 Multiplicity = 2

                          Input orientation:
 ---------------------------------------------------------------------
 Center     Atomic      Atomic             Coordinates (Angstroms)
 Number     Number       Type             X           Y           Z
 ---------------------------------------------------------------------
      1          8           0       -2.341172    0.587056   -2.645464
      2          6           0       -1.230936    0.395850   -2.162775
      3          8           0       -0.153586    0.989111   -2.723231
      4          6           0        1.038030    1.003669   -2.085451
      5          8           0        2.038446    1.374797   -2.687493
      6          7           0        1.045470    0.623911   -0.771629
      7          6           0        2.286245    0.792714   -0.031241
      8          9           0        2.014654    0.890865    1.296764
      9          9           0        2.765051    2.042381   -0.336039
     10          6           0        3.427185   -0.234693   -0.296200
     11          9           0        3.355945   -0.614340   -1.620920
     12          8           0        4.748089    0.323625   -0.206808
     13          6           0        5.183271    0.573961    1.104708
     14          9           0        6.304073    1.314114    1.055571
     15          9           0        4.249941    1.243264    1.792172
     16          9           0        5.454857   -0.586522    1.719599
     17          6           0        3.190840   -1.505873    0.518340
     18          9           0        2.074320   -2.148602    0.106320
     19          9           0        4.214065   -2.379672    0.350275
     20          9           0        3.077942   -1.273335    1.839566
     21          6           0        0.062716   -0.172636   -0.270206
     22          8           0        0.138400   -0.649077    0.857229
     23          7           0       -1.002993   -0.409225   -1.083437
     24          6           0       -2.128957   -1.159859   -0.546095
     25          9           0       -1.640223   -2.288149    0.042666
     26          9           0       -2.864790   -1.640525   -1.588499
     27          6           0       -3.043375   -0.388588    0.442163
     28          9           0       -2.326419   -0.081565    1.562602
     29          8           0       -3.402523    0.874709   -0.126471
     30          6           0       -4.425158    1.529348    0.578740
     31          9           0       -4.453691    2.816316    0.188082
     32          9           0       -5.603562    0.959204    0.284988
     33          9           0       -4.201491    1.483649    1.900550
     34          6           0       -4.177346   -1.362576    0.794083
     35          9           0       -3.724683   -2.551863    1.246297
     36          9           0       -4.974317   -0.865646    1.770216
     37          9           0       -4.974319   -1.610607   -0.268974
 ---------------------------------------------------------------------

 SCF Done:  E(UCAM-B3LYP) =  -2776.00841156     A.U. after   46 cycles

 Alpha  occ. eigenvalues --  -24.91367 -24.90843 -24.89775 -24.89148 -24.88933
 Alpha  occ. eigenvalues --  -24.88740 -24.88199 -24.87837 -24.87409 -24.86817
 Alpha  occ. eigenvalues --  -24.86698 -24.86528 -24.86468 -24.86374 -24.86352
 Alpha  occ. eigenvalues --  -24.86317 -24.86264 -24.86003 -19.49374 -19.43752
 Alpha  occ. eigenvalues --  -19.37553 -19.37247 -19.35617 -19.35597 -14.65632
 Alpha  occ. eigenvalues --  -14.65464 -10.62912 -10.62867 -10.62139 -10.61095
 Alpha  occ. eigenvalues --  -10.61050 -10.60020 -10.59248 -10.57932 -10.57876
 Alpha  occ. eigenvalues --  -10.54546 -10.54539  -1.47574  -1.47110  -1.46217
 Alpha  occ. eigenvalues --   -1.46138  -1.46030  -1.44752  -1.41450  -1.40819
 Alpha  occ. eigenvalues --   -1.40497  -1.39196  -1.38736  -1.38081  -1.37588
 Alpha  occ. eigenvalues --   -1.37089  -1.36581  -1.36290  -1.36276  -1.36039
 Alpha  occ. eigenvalues --   -1.35822  -1.35365  -1.28758  -1.25444  -1.24817
 Alpha  occ. eigenvalues --   -1.24552  -1.23184  -1.20233  -1.00436  -0.99040
 Alpha  occ. eigenvalues --   -0.95183  -0.94298  -0.91842  -0.89051  -0.86978
 Alpha  occ. eigenvalues --   -0.86365  -0.85995  -0.82596  -0.81386  -0.79270
 Alpha  occ. eigenvalues --   -0.78416  -0.77374  -0.77185  -0.76665  -0.75436
 Alpha  occ. eigenvalues --   -0.75236  -0.74718  -0.74590  -0.73944  -0.73311
 Alpha  occ. eigenvalues --   -0.72873  -0.72717  -0.72628  -0.72334  -0.71399
 Alpha  occ. eigenvalues --   -0.71185  -0.70597  -0.70363  -0.69167  -0.68454
 Alpha  occ. eigenvalues --   -0.66960  -0.66463  -0.64666  -0.64306  -0.63656
 Alpha  occ. eigenvalues --   -0.63208  -0.62518  -0.62226  -0.61816  -0.61322
 Alpha  occ. eigenvalues --   -0.60902  -0.60756  -0.60635  -0.60244  -0.59907
 Alpha  occ. eigenvalues --   -0.59839  -0.59637  -0.59440  -0.59043  -0.58875
 Alpha  occ. eigenvalues --   -0.58702  -0.58274  -0.57737  -0.57454  -0.57328
 Alpha  occ. eigenvalues --   -0.57215  -0.56624  -0.56457  -0.55864  -0.55674
 Alpha  occ. eigenvalues --   -0.55442  -0.55208  -0.54874  -0.54452  -0.54400
 Alpha  occ. eigenvalues --   -0.54155  -0.53720  -0.53228  -0.53071  -0.52982
 Alpha  occ. eigenvalues --   -0.52940  -0.52401  -0.52207  -0.51673  -0.50952
 Alpha  occ. eigenvalues --   -0.49903  -0.49295  -0.48773  -0.47684  -0.47489
 Alpha virt. eigenvalues --   -0.13104  -0.08845  -0.02146  -0.01263  -0.00328
 Alpha virt. eigenvalues --    0.00540   0.03358   0.06693   0.07827   0.09225
 Alpha virt. eigenvalues --    0.09826   0.12247   0.12466   0.14002   0.14083

  Beta  occ. eigenvalues --  -24.91249 -24.90765 -24.89759 -24.89135 -24.88916
  Beta  occ. eigenvalues --  -24.88703 -24.88194 -24.87836 -24.87407 -24.86817
  Beta  occ. eigenvalues --  -24.86698 -24.86527 -24.86468 -24.86374 -24.86352
  Beta  occ. eigenvalues --  -24.86317 -24.86264 -24.86003 -19.47379 -19.43743
  Beta  occ. eigenvalues --  -19.37550 -19.37246 -19.35305 -19.35280 -14.65535
  Beta  occ. eigenvalues --  -14.65358 -10.62912 -10.62867 -10.62278 -10.61101
  Beta  occ. eigenvalues --  -10.61057 -10.60020 -10.59248 -10.57967 -10.57919
  Beta  occ. eigenvalues --  -10.54546 -10.54541  -1.47477  -1.47026  -1.46145
  Beta  occ. eigenvalues --   -1.46110  -1.45981  -1.44736  -1.41279  -1.40485
  Beta  occ. eigenvalues --   -1.39456  -1.39064  -1.38558  -1.38034  -1.37102
  Beta  occ. eigenvalues --   -1.36583  -1.36294  -1.36281  -1.36042  -1.35859
  Beta  occ. eigenvalues --   -1.35641  -1.35364  -1.28354  -1.25163  -1.24578
  Beta  occ. eigenvalues --   -1.24104  -1.22419  -1.19802  -1.00345  -0.99004
  Beta  occ. eigenvalues --   -0.94751  -0.93947  -0.91319  -0.88202  -0.86649
  Beta  occ. eigenvalues --   -0.86353  -0.85945  -0.82544  -0.81308  -0.79197
  Beta  occ. eigenvalues --   -0.78350  -0.77308  -0.77141  -0.76597  -0.75326
  Beta  occ. eigenvalues --   -0.74740  -0.74610  -0.73825  -0.73544  -0.73253
  Beta  occ. eigenvalues --   -0.72707  -0.72627  -0.72499  -0.72083  -0.71372
  Beta  occ. eigenvalues --   -0.71098  -0.70519  -0.70293  -0.69128  -0.67814
  Beta  occ. eigenvalues --   -0.66198  -0.64627  -0.64239  -0.63408  -0.63167
  Beta  occ. eigenvalues --   -0.62570  -0.62381  -0.61913  -0.61665  -0.61026
  Beta  occ. eigenvalues --   -0.60848  -0.60601  -0.60369  -0.59969  -0.59790
  Beta  occ. eigenvalues --   -0.59727  -0.59584  -0.59033  -0.59009  -0.58680
  Beta  occ. eigenvalues --   -0.58295  -0.57600  -0.57327  -0.57181  -0.56963
  Beta  occ. eigenvalues --   -0.56656  -0.56364  -0.55821  -0.55605  -0.55352
  Beta  occ. eigenvalues --   -0.55102  -0.54749  -0.54448  -0.54376  -0.53991
  Beta  occ. eigenvalues --   -0.53663  -0.53211  -0.53018  -0.52969  -0.52916
  Beta  occ. eigenvalues --   -0.52350  -0.52204  -0.51409  -0.50041  -0.49244
  Beta  occ. eigenvalues --   -0.48679  -0.48021  -0.47263  -0.45836
  Beta virt. eigenvalues --   -0.33331  -0.12801  -0.08697  -0.02104  -0.01214
  Beta virt. eigenvalues --   -0.00266   0.00605   0.03440   0.06783   0.07962
  Beta virt. eigenvalues --    0.09464   0.09893   0.12371   0.12799   0.14095

 Mulliken charges and spin densities:
               1          2
     1  O   -0.346342   0.119301
     2  C    0.862273  -0.025793
     3  O   -0.407363   0.005469
     4  C    0.867209  -0.022423
     5  O   -0.350033   0.116737
     6  N   -0.607573   0.038076
     7  C    0.744882  -0.005696
     8  F   -0.218709   0.028835
     9  F   -0.241018   0.004509
    10  C    0.451832   0.000868
    11  F   -0.260060   0.001164
    12  O   -0.477749   0.000192
    13  C    0.987468  -0.000028
    14  F   -0.226079   0.000067
    15  F   -0.236314   0.000451
    16  F   -0.233412   0.000031
    17  C    0.814825  -0.001076
    18  F   -0.246038   0.003329
    19  F   -0.239672   0.000229
    20  F   -0.233277   0.000266
    21  C    0.992212  -0.069883
    22  O   -0.176290   0.735291
    23  N   -0.612336   0.041749
    24  C    0.744236  -0.005202
    25  F   -0.227524   0.019190
    26  F   -0.223733   0.004396
    27  C    0.440569  -0.000446
    28  F   -0.249101   0.008943
    29  O   -0.507865   0.001083
    30  C    1.006906  -0.000057
    31  F   -0.230659   0.000001
    32  F   -0.233972   0.000005
    33  F   -0.237116   0.000084
    34  C    0.829642   0.000213
    35  F   -0.237030   0.000048
    36  F   -0.246470   0.000013
    37  F   -0.236317   0.000066
 Sum of Mulliken charges =   1.00000   1.00000

 Dipole moment (field-independent basis, Debye):
    X=              0.3204    Y=             -0.3351    Z=             -1.2106  Tot=              1.2963
 Quadrupole moment (field-independent basis, Debye-Ang):
   XX=           -174.8080   YY=           -185.6505   ZZ=           -188.7528
   XY=              0.3670   XZ=              1.9876   YZ=              3.0724

 Normal termination of Gaussian 09 at Sun Mar  3 18:21:59 2024.
