 Gaussian 09, Revision D.01,
 Gaussian 09:  ES64L-G09RevD.01 24-Apr-2013

 ----------------------------------------------------------------------
 #p CAM-B3LYP/6-31G(d,p) opt SCRF=(PCM,Solvent=Generic,Read) NoSymm out
 =wfn
 ----------------------------------------------------------------------

 ------------
 Title A0_neu
 ------------
 Symbolic Z-matrix:
 Charge =  0 Multiplicity = 1

 SCF Done:  E(RCAM-B3LYP) =  -1828.51784565     A.U. after   13 cycles
 SCF Done:  E(RCAM-B3LYP) =  -1828.53797705     A.U. after   12 cycles
 SCF Done:  E(RCAM-B3LYP) =  -1828.54347125     A.U. after   12 cycles
 SCF Done:  E(RCAM-B3LYP) =  -1828.54486294     A.U. after   12 cycles
 SCF Done:  E(RCAM-B3LYP) =  -1828.54488387     A.U. after   12 cycles
 SCF Done:  E(RCAM-B3LYP) =  -1828.54539139     A.U. after   11 cycles
 SCF Done:  E(RCAM-B3LYP) =  -1828.54565024     A.U. after   11 cycles
 SCF Done:  E(RCAM-B3LYP) =  -1828.54574598     A.U. after   11 cycles
 SCF Done:  E(RCAM-B3LYP) =  -1828.54581563     A.U. after   11 cycles
 SCF Done:  E(RCAM-B3LYP) =  -1828.54587583     A.U. after   10 cycles
 SCF Done:  E(RCAM-B3LYP) =  -1828.54588777     A.U. after    9 cycles
 SCF Done:  E(RCAM-B3LYP) =  -1828.54588972     A.U. after    8 cycles
 SCF Done:  E(RCAM-B3LYP) =  -1828.54589082     A.U. after    8 cycles
 SCF Done:  E(RCAM-B3LYP) =  -1828.54589102     A.U. after    7 cycles
 Optimization completed.
    -- Stationary point found.

                          Input orientation:
 ---------------------------------------------------------------------
 Center     Atomic      Atomic             Coordinates (Angstroms)
 Number     Number       Type             X           Y           Z
 ---------------------------------------------------------------------
      1          9           0       -0.488610   -0.151621   -1.457991
      2          6           0       -0.520818   -0.115216   -0.091361
      3          6           0       -0.822797    1.336328    0.316517
      4          9           0       -0.956004    1.439730    1.646656
      5          6           0       -2.085908    1.944183   -0.327531
      6          9           0       -2.291135    3.150644    0.192501
      7          9           0       -1.942373    2.056820   -1.642376
      8          9           0       -3.143973    1.173963   -0.064666
      9          9           0        0.224204    2.098897   -0.080516
     10          6           0        0.837530   -0.644079    0.471647
     11          8           0        0.615944   -1.955671    0.904052
     12          6           0       -0.625808   -2.436697    0.553239
     13          9           0       -1.061736   -3.249592    1.508817
     14          9           0       -0.562755   -3.122161   -0.596397
     15          6           0       -1.520788   -1.195751    0.374829
     16          9           0       -2.059926   -0.883052    1.565345
     17          9           0       -2.487504   -1.403484   -0.520504
     18          6           0        2.011518   -0.685005   -0.538570
     19          9           0        1.695251   -1.554204   -1.510965
     20          6           0        2.400108    0.659377   -1.179068
     21          8           0        3.052740    1.418786   -0.305790
     22          8           0        2.144425    0.939400   -2.315709
     23          9           0        3.073757   -1.164070    0.145031
     24          9           0        1.239200    0.085895    1.536257
     25          1           0        3.275458    2.256577   -0.745309
 ---------------------------------------------------------------------

 Alpha  occ. eigenvalues --  -24.84026 -24.83951 -24.83673 -24.83665 -24.83661
 Alpha  occ. eigenvalues --  -24.83542 -24.83390 -24.83234 -24.83109 -24.82743
 Alpha  occ. eigenvalues --  -24.82472 -24.81898 -24.81668 -19.31875 -19.30472
 Alpha  occ. eigenvalues --  -19.25134 -10.54935 -10.52438 -10.49522 -10.48770
 Alpha  occ. eigenvalues --  -10.47567 -10.47368 -10.43623 -10.43241  -1.43547
 Alpha  occ. eigenvalues --   -1.41105  -1.39479  -1.38605  -1.38133  -1.35670
 Alpha  occ. eigenvalues --   -1.35525  -1.34186  -1.33785  -1.33483  -1.32987
 Alpha  occ. eigenvalues --   -1.32289  -1.31303  -1.22810  -1.22167  -1.13810
 Alpha  occ. eigenvalues --   -0.95634  -0.90905  -0.89118  -0.84579  -0.80990
 Alpha  occ. eigenvalues --   -0.76908  -0.76534  -0.73844  -0.72038  -0.71522
 Alpha  occ. eigenvalues --   -0.70617  -0.70375  -0.69900  -0.68928  -0.68379
 Alpha  occ. eigenvalues --   -0.67274  -0.66742  -0.66468  -0.65808  -0.64490
 Alpha  occ. eigenvalues --   -0.64148  -0.62758  -0.58504  -0.58385  -0.57598
 Alpha  occ. eigenvalues --   -0.57128  -0.56490  -0.56275  -0.55958  -0.55477
 Alpha  occ. eigenvalues --   -0.55119  -0.54685  -0.54501  -0.54037  -0.53809
 Alpha  occ. eigenvalues --   -0.53547  -0.53405  -0.52742  -0.52341  -0.52119
 Alpha  occ. eigenvalues --   -0.51808  -0.51669  -0.51011  -0.50661  -0.50300
 Alpha  occ. eigenvalues --   -0.50193  -0.49742  -0.48836  -0.48033  -0.46136
 Alpha  occ. eigenvalues --   -0.45002  -0.43165  -0.41943  -0.41287  -0.37560
 Alpha virt. eigenvalues --    0.01518   0.03861   0.08245   0.11322   0.12435
 Alpha virt. eigenvalues --    0.13507   0.14999   0.16296   0.19357   0.21577
 Alpha virt. eigenvalues --    0.23944   0.24513   0.24802   0.26702   0.27191

 Mulliken charges:
               1
     1  F   -0.284338
     2  C    0.114885
     3  C    0.525353
     4  F   -0.256164
     5  C    0.780424
     6  F   -0.237173
     7  F   -0.228567
     8  F   -0.237551
     9  F   -0.272154
    10  C    0.494004
    11  O   -0.490070
    12  C    0.756614
    13  F   -0.236932
    14  F   -0.244009
    15  C    0.534977
    16  F   -0.256723
    17  F   -0.251530
    18  C    0.597737
    19  F   -0.260430
    20  C    0.512535
    21  O   -0.465773
    22  O   -0.426414
    23  F   -0.268657
    24  F   -0.257143
    25  H    0.357100
 Sum of Mulliken charges =   0.00000

 Dipole moment (field-independent basis, Debye):
    X=              0.5405    Y=              2.1119    Z=              0.7501  Tot=              2.3054
 Quadrupole moment (field-independent basis, Debye-Ang):
   XX=           -119.6458   YY=           -121.1814   ZZ=           -132.8533
   XY=              6.8830   XZ=             -0.8836   YZ=             -0.7002

 Normal termination of Gaussian 09 at Mon Feb  3 22:36:59 2025.
