 Gaussian 09, Revision D.01,
 Gaussian 09:  ES64L-G09RevD.01 24-Apr-2013

 ----------------------------------------------------------------------
 #p CAM-B3LYP/6-31G(d,p) SCRF=(PCM,Solvent=Generic,Read) NoSymm out=wfn
 ----------------------------------------------------------------------

 --------------
 Title mXD0_neu
 --------------
 Symbolic Z-matrix:
 Charge =  0 Multiplicity = 1

                          Input orientation:
 ---------------------------------------------------------------------
 Center     Atomic      Atomic             Coordinates (Angstroms)
 Number     Number       Type             X           Y           Z
 ---------------------------------------------------------------------
      1          9           0       -5.130725   -3.565287    0.235840
      2          6           0       -3.882935   -3.447315    0.729149
      3          9           0       -3.542732   -4.642328    1.251815
      4          6           0       -3.742720   -2.309007    1.709928
      5          9           0       -2.583878   -2.476987    2.414496
      6          9           0       -4.719192   -2.224000    2.625175
      7          6           0       -3.584975   -1.111876    0.813536
      8          9           0       -2.891754   -0.155449    1.492773
      9          6           0       -4.918760   -0.537147    0.361001
     10          9           0       -5.735863   -0.410852    1.451135
     11          6           0       -4.736646    0.841008   -0.278237
     12          8           0       -4.749920    0.838809   -1.627731
     13          8           0       -4.590336    1.897378    0.320002
     14          9           0       -5.564776   -1.406889   -0.461815
     15          6           0       -2.772278   -1.730243   -0.330570
     16          9           0       -3.208468   -1.278634   -1.534431
     17          6           0       -1.253632   -1.476941   -0.244156
     18          9           0       -0.771122   -1.889377    0.961876
     19          6           0       -0.908371   -0.002287   -0.503811
     20          7           0        0.447036    0.268441   -0.514777
     21          6           0        0.952529    1.615353   -0.641035
     22          6           0        2.392088    1.602235   -1.075512
     23          6           0        3.428425    1.662404   -0.130219
     24          6           0        4.773803    1.634270   -0.532117
     25          6           0        5.887488    1.708549    0.482357
     26          7           0        6.542525    0.418258    0.642402
     27          6           0        5.070725    1.523310   -1.898153
     28          6           0        4.047680    1.447635   -2.843791
     29          6           0        2.715733    1.484413   -2.434358
     30          8           0       -1.756976    0.868053   -0.685804
     31          9           0       -0.610161   -2.265876   -1.162453
     32          8           0       -3.023879   -3.157454   -0.365959
     33          1           0       -4.556192    1.768075   -1.877319
     34          1           0        1.101563   -0.468503   -0.272610
     35          1           0        0.842904    2.106976    0.332552
     36          1           0        0.339217    2.180719   -1.352054
     37          1           0        3.187064    1.737494    0.928179
     38          1           0        6.620566    2.457494    0.161546
     39          1           0        5.499060    2.043897    1.450034
     40          1           0        5.850890   -0.281455    0.907734
     41          1           0        7.208647    0.473121    1.409447
     42          1           0        6.108369    1.484419   -2.225575
     43          1           0        4.292555    1.358378   -3.898518
     44          1           0        1.927424    1.417216   -3.181491
 ---------------------------------------------------------------------

 SCF Done:  E(RCAM-B3LYP) =  -2025.03199916     A.U. after   13 cycles

 Alpha  occ. eigenvalues --  -24.82753 -24.82508 -24.82359 -24.82172 -24.82053
 Alpha  occ. eigenvalues --  -24.82006 -24.81977 -24.81546 -24.81495 -24.81468
 Alpha  occ. eigenvalues --  -19.31196 -19.28727 -19.24040 -19.22715 -14.45998
 Alpha  occ. eigenvalues --  -14.38680 -10.52125 -10.48689 -10.48222 -10.47549
 Alpha  occ. eigenvalues --  -10.46721 -10.43176 -10.42443 -10.40403 -10.31080
 Alpha  occ. eigenvalues --  -10.28702 -10.28203 -10.27648 -10.27362 -10.27166
 Alpha  occ. eigenvalues --  -10.27047 -10.26844  -1.40030  -1.37793  -1.37358
 Alpha  occ. eigenvalues --   -1.37312  -1.34826  -1.34267  -1.32041  -1.31461
 Alpha  occ. eigenvalues --   -1.30445  -1.30355  -1.20775  -1.19376  -1.14851
 Alpha  occ. eigenvalues --   -1.10878  -1.02878  -0.97319  -0.96930  -0.94104
 Alpha  occ. eigenvalues --   -0.90087  -0.87666  -0.86424  -0.84019  -0.82590
 Alpha  occ. eigenvalues --   -0.78943  -0.76264  -0.75675  -0.74366  -0.73285
 Alpha  occ. eigenvalues --   -0.70776  -0.69773  -0.69350  -0.68841  -0.68088
 Alpha  occ. eigenvalues --   -0.67864  -0.67216  -0.66068  -0.65967  -0.65423
 Alpha  occ. eigenvalues --   -0.64126  -0.63698  -0.63332  -0.62850  -0.61089
 Alpha  occ. eigenvalues --   -0.58635  -0.57380  -0.57242  -0.56293  -0.56239
 Alpha  occ. eigenvalues --   -0.55812  -0.55748  -0.55485  -0.55090  -0.54638
 Alpha  occ. eigenvalues --   -0.54387  -0.54037  -0.53251  -0.53064  -0.52663
 Alpha  occ. eigenvalues --   -0.52472  -0.52167  -0.51851  -0.51522  -0.51176
 Alpha  occ. eigenvalues --   -0.50812  -0.50455  -0.49706  -0.49506  -0.49239
 Alpha  occ. eigenvalues --   -0.49069  -0.48633  -0.48379  -0.47927  -0.47552
 Alpha  occ. eigenvalues --   -0.47457  -0.46492  -0.45779  -0.45195  -0.44504
 Alpha  occ. eigenvalues --   -0.43127  -0.42838  -0.42065  -0.41033  -0.40138
 Alpha  occ. eigenvalues --   -0.39597  -0.36452  -0.35718  -0.33654  -0.31373
 Alpha  occ. eigenvalues --   -0.30619  -0.29752
 Alpha virt. eigenvalues --    0.00724   0.01518   0.02921   0.03886   0.06127
 Alpha virt. eigenvalues --    0.08485   0.10761   0.12588   0.13162   0.13981
 Alpha virt. eigenvalues --    0.14929   0.15116   0.16309   0.16868   0.17246

 Mulliken charges:
               1
     1  F   -0.238999
     2  C    0.742529
     3  F   -0.248875
     4  C    0.543847
     5  F   -0.271060
     6  F   -0.248730
     7  C    0.145586
     8  F   -0.280079
     9  C    0.604337
    10  F   -0.272968
    11  C    0.557966
    12  O   -0.471940
    13  O   -0.454238
    14  F   -0.261532
    15  C    0.485708
    16  F   -0.267466
    17  C    0.537484
    18  F   -0.268699
    19  C    0.598999
    20  N   -0.552688
    21  C   -0.076217
    22  C    0.045112
    23  C   -0.158650
    24  C    0.092100
    25  C   -0.104320
    26  N   -0.609708
    27  C   -0.105455
    28  C   -0.096101
    29  C   -0.112609
    30  O   -0.514867
    31  F   -0.277161
    32  O   -0.496742
    33  H    0.357394
    34  H    0.293645
    35  H    0.133850
    36  H    0.149516
    37  H    0.094327
    38  H    0.116444
    39  H    0.086401
    40  H    0.242595
    41  H    0.246964
    42  H    0.106642
    43  H    0.105241
    44  H    0.102418
 Sum of Mulliken charges =   0.00000

 Dipole moment (field-independent basis, Debye):
    X=              4.7075    Y=              1.6894    Z=             -0.2260  Tot=              5.0066
 Quadrupole moment (field-independent basis, Debye-Ang):
   XX=           -179.3849   YY=           -181.5585   ZZ=           -168.5603
   XY=              1.6827   XZ=             12.8741   YZ=             -6.1146

 Normal termination of Gaussian 09 at Mon Feb  3 21:43:31 2025.
