 Gaussian 09, Revision D.01,
 Gaussian 09:  ES64L-G09RevD.01 24-Apr-2013

 ----------------------------------------------------------------------
 #p CAM-B3LYP/6-31G(d,p) SCRF=(PCM,Solvent=Generic,Read) NoSymm out=wfn
 ----------------------------------------------------------------------

 ----------------
 Title A949741_p1
 ----------------
 Symbolic Z-matrix:
 Charge =  1 Multiplicity = 2

                          Input orientation:
 ---------------------------------------------------------------------
 Center     Atomic      Atomic             Coordinates (Angstroms)
 Number     Number       Type             X           Y           Z
 ---------------------------------------------------------------------
      1          8           0        1.801915    1.871073    2.176953
      2          6           0        0.870120    1.519876    1.462998
      3          7           0       -0.349253    1.304354    2.015003
      4          6           0       -1.381015    0.693097    1.386141
      5          8           0       -2.457328    0.610089    1.963381
      6          7           0       -1.127856    0.181688    0.148494
      7          6           0       -2.156099   -0.511961   -0.627387
      8          9           0       -1.538486   -1.512265   -1.332300
      9          9           0       -2.587117    0.368014   -1.582783
     10          6           0       -3.423223   -1.172535    0.004659
     11          9           0       -4.147804   -1.754747   -1.015024
     12          8           0       -4.381996   -0.373899    0.696141
     13          6           0       -4.821182    0.734187   -0.043719
     14          9           0       -5.156719    0.386676   -1.296121
     15          9           0       -5.901246    1.259756    0.564176
     16          9           0       -3.853980    1.670001   -0.079622
     17          6           0       -2.932689   -2.327378    0.883231
     18          9           0       -2.291480   -3.278604    0.163241
     19          9           0       -2.063901   -1.936583    1.843334
     20          9           0       -3.961373   -2.948872    1.510840
     21          6           0        0.021213    0.529458   -0.548582
     22          8           0        0.218700    0.163341   -1.705055
     23          7           0        0.951405    1.299739    0.118066
     24          6           0        2.231449    1.564868   -0.528126
     25          9           0        2.728112    2.735764   -0.036246
     26          9           0        2.018674    1.843763   -1.845521
     27          6           0        3.277333    0.431284   -0.385379
     28          9           0        3.591326    0.281747    0.935484
     29          8           0        2.685134   -0.814772   -0.772445
     30          6           0        3.620015   -1.852422   -0.911058
     31          9           0        2.955750   -3.022361   -0.929126
     32          9           0        4.483190   -1.862536    0.115928
     33          9           0        4.277684   -1.707998   -2.071576
     34          6           0        4.508128    0.908084   -1.169286
     35          9           0        4.941443    2.126094   -0.778407
     36          9           0        4.266418    0.971445   -2.497563
     37          9           0        5.557089    0.065795   -1.005654
     38          1           0       -0.472352    1.556739    2.986711
 ---------------------------------------------------------------------

 SCF Done:  E(UCAM-B3LYP) =  -2756.17756684     A.U. after   41 cycles

 Alpha  occ. eigenvalues --  -24.89155 -24.88253 -24.87811 -24.87753 -24.87328
 Alpha  occ. eigenvalues --  -24.87290 -24.86885 -24.86272 -24.86265 -24.86250
 Alpha  occ. eigenvalues --  -24.86222 -24.86186 -24.86177 -24.86029 -24.85930
 Alpha  occ. eigenvalues --  -24.85819 -24.85809 -24.85408 -19.41692 -19.38423
 Alpha  occ. eigenvalues --  -19.36978 -19.36852 -19.33961 -14.62476 -14.62206
 Alpha  occ. eigenvalues --  -14.62160 -10.62748 -10.62452 -10.59441 -10.59316
 Alpha  occ. eigenvalues --  -10.59012 -10.58539 -10.57715 -10.56611 -10.55469
 Alpha  occ. eigenvalues --  -10.53786 -10.53379  -1.46183  -1.46077  -1.45333
 Alpha  occ. eigenvalues --   -1.45225  -1.43996  -1.43655  -1.40000  -1.38684
 Alpha  occ. eigenvalues --   -1.37614  -1.36895  -1.36496  -1.36173  -1.36158
 Alpha  occ. eigenvalues --   -1.35854  -1.35701  -1.35271  -1.35122  -1.34961
 Alpha  occ. eigenvalues --   -1.34800  -1.31645  -1.28346  -1.24459  -1.24310
 Alpha  occ. eigenvalues --   -1.21511  -1.18155  -1.16670  -0.98777  -0.98050
 Alpha  occ. eigenvalues --   -0.93023  -0.92200  -0.90444  -0.86486  -0.85632
 Alpha  occ. eigenvalues --   -0.84963  -0.84289  -0.82002  -0.79624  -0.78591
 Alpha  occ. eigenvalues --   -0.76423  -0.76302  -0.76040  -0.75573  -0.74203
 Alpha  occ. eigenvalues --   -0.73816  -0.73357  -0.73128  -0.72748  -0.72506
 Alpha  occ. eigenvalues --   -0.71926  -0.71548  -0.70956  -0.70732  -0.70635
 Alpha  occ. eigenvalues --   -0.69933  -0.69679  -0.69449  -0.69004  -0.68520
 Alpha  occ. eigenvalues --   -0.66126  -0.64930  -0.63609  -0.63512  -0.63280
 Alpha  occ. eigenvalues --   -0.63037  -0.61306  -0.61069  -0.60692  -0.60365
 Alpha  occ. eigenvalues --   -0.60042  -0.59823  -0.59797  -0.59295  -0.59028
 Alpha  occ. eigenvalues --   -0.58388  -0.58342  -0.58002  -0.57852  -0.57816
 Alpha  occ. eigenvalues --   -0.57373  -0.56901  -0.56499  -0.56231  -0.55963
 Alpha  occ. eigenvalues --   -0.55714  -0.55403  -0.55162  -0.55111  -0.55000
 Alpha  occ. eigenvalues --   -0.54735  -0.54181  -0.53792  -0.53661  -0.53463
 Alpha  occ. eigenvalues --   -0.53138  -0.52905  -0.52732  -0.52475  -0.52367
 Alpha  occ. eigenvalues --   -0.52312  -0.51672  -0.51152  -0.50248  -0.49405
 Alpha  occ. eigenvalues --   -0.48975  -0.48529  -0.48195  -0.47193  -0.46228
 Alpha virt. eigenvalues --   -0.10259  -0.08189  -0.00333   0.00013   0.01286
 Alpha virt. eigenvalues --    0.04495   0.05200   0.06006   0.08001   0.09766
 Alpha virt. eigenvalues --    0.11627   0.12506   0.13136   0.13855   0.15028

  Beta  occ. eigenvalues --  -24.89107 -24.88236 -24.87797 -24.87745 -24.87320
  Beta  occ. eigenvalues --  -24.87291 -24.86885 -24.86272 -24.86263 -24.86247
  Beta  occ. eigenvalues --  -24.86221 -24.86186 -24.86177 -24.86029 -24.85930
  Beta  occ. eigenvalues --  -24.85819 -24.85809 -24.85408 -19.40374 -19.37479
  Beta  occ. eigenvalues --  -19.36899 -19.36851 -19.33653 -14.62429 -14.62134
  Beta  occ. eigenvalues --  -14.61927 -10.62750 -10.62452 -10.59444 -10.59319
  Beta  occ. eigenvalues --  -10.59012 -10.58539 -10.57844 -10.56716 -10.55510
  Beta  occ. eigenvalues --  -10.53788 -10.53380  -1.46173  -1.46066  -1.45322
  Beta  occ. eigenvalues --   -1.45190  -1.43976  -1.43646  -1.39983  -1.38676
  Beta  occ. eigenvalues --   -1.37538  -1.36886  -1.36484  -1.36158  -1.36154
  Beta  occ. eigenvalues --   -1.35853  -1.35697  -1.35253  -1.35119  -1.34812
  Beta  occ. eigenvalues --   -1.33838  -1.29869  -1.27563  -1.24316  -1.24293
  Beta  occ. eigenvalues --   -1.20278  -1.17684  -1.16053  -0.98749  -0.97994
  Beta  occ. eigenvalues --   -0.92439  -0.92107  -0.90053  -0.86328  -0.85479
  Beta  occ. eigenvalues --   -0.84432  -0.84001  -0.81945  -0.79582  -0.78533
  Beta  occ. eigenvalues --   -0.76365  -0.76287  -0.75979  -0.75519  -0.74159
  Beta  occ. eigenvalues --   -0.73746  -0.73271  -0.72974  -0.72651  -0.72466
  Beta  occ. eigenvalues --   -0.71881  -0.71481  -0.70916  -0.70702  -0.70590
  Beta  occ. eigenvalues --   -0.69891  -0.69434  -0.69289  -0.68772  -0.67411
  Beta  occ. eigenvalues --   -0.65199  -0.64371  -0.63543  -0.63283  -0.62967
  Beta  occ. eigenvalues --   -0.62528  -0.61060  -0.60846  -0.60570  -0.60245
  Beta  occ. eigenvalues --   -0.59917  -0.59755  -0.59649  -0.59261  -0.58906
  Beta  occ. eigenvalues --   -0.58353  -0.58284  -0.57839  -0.57763  -0.57571
  Beta  occ. eigenvalues --   -0.57083  -0.56857  -0.56351  -0.55942  -0.55897
  Beta  occ. eigenvalues --   -0.55483  -0.55376  -0.55063  -0.55016  -0.54722
  Beta  occ. eigenvalues --   -0.54159  -0.53788  -0.53601  -0.53438  -0.52870
  Beta  occ. eigenvalues --   -0.52726  -0.52592  -0.52371  -0.52344  -0.51675
  Beta  occ. eigenvalues --   -0.50706  -0.50160  -0.49424  -0.48734  -0.48474
  Beta  occ. eigenvalues --   -0.48161  -0.46974  -0.44547  -0.44530
  Beta virt. eigenvalues --   -0.31779  -0.09774  -0.07922  -0.00278   0.00210
  Beta virt. eigenvalues --    0.01309   0.04606   0.05234   0.06108   0.08044
  Beta virt. eigenvalues --    0.09797   0.11756   0.12544   0.13177   0.13958

 Mulliken charges and spin densities:
               1          2
     1  O   -0.266575   0.498612
     2  C    0.919977  -0.077153
     3  N   -0.585618   0.125998
     4  C    0.910231  -0.065376
     5  O   -0.339311   0.356819
     6  N   -0.636257   0.012434
     7  C    0.776541  -0.001026
     8  F   -0.244519   0.001874
     9  F   -0.247784  -0.000238
    10  C    0.402868  -0.002252
    11  F   -0.256623   0.000551
    12  O   -0.480481   0.023804
    13  C    1.010244  -0.001036
    14  F   -0.234323   0.000928
    15  F   -0.229344   0.000179
    16  F   -0.252925   0.000114
    17  C    0.817981  -0.000165
    18  F   -0.234285   0.000240
    19  F   -0.243548   0.003288
    20  F   -0.237166  -0.000015
    21  C    0.933061  -0.023653
    22  O   -0.387237   0.114949
    23  N   -0.648001   0.022633
    24  C    0.750183  -0.003510
    25  F   -0.237122   0.011109
    26  F   -0.228953   0.004082
    27  C    0.440821  -0.000265
    28  F   -0.252615   0.001875
    29  O   -0.513567   0.000329
    30  C    1.004732  -0.000018
    31  F   -0.233221   0.000000
    32  F   -0.238218   0.000013
    33  F   -0.235446  -0.000001
    34  C    0.826116   0.000024
    35  F   -0.239023   0.000030
    36  F   -0.238682   0.000007
    37  F   -0.249996  -0.000025
    38  H    0.398086  -0.005159
 Sum of Mulliken charges =   1.00000   1.00000

 Dipole moment (field-independent basis, Debye):
    X=             -0.6704    Y=              5.1993    Z=              6.8430  Tot=              8.6202
 Quadrupole moment (field-independent basis, Debye-Ang):
   XX=           -179.2846   YY=           -180.1914   ZZ=           -178.5803
   XY=             -1.1287   XZ=             -1.8686   YZ=              8.4384

 Normal termination of Gaussian 09 at Sun Mar  3 17:23:25 2024.
