 Gaussian 09, Revision D.01,
 Gaussian 09:  ES64L-G09RevD.01 24-Apr-2013

 ----------------------------------------------------------------------
 #p CAM-B3LYP/6-31G(d,p) SCRF=(PCM,Solvent=Generic,Read) NoSymm out=wfn
 ----------------------------------------------------------------------

 ---------------
 Title A949741_0
 ---------------
 Symbolic Z-matrix:
 Charge =  0 Multiplicity = 1

                          Input orientation:
 ---------------------------------------------------------------------
 Center     Atomic      Atomic             Coordinates (Angstroms)
 Number     Number       Type             X           Y           Z
 ---------------------------------------------------------------------
      1          8           0        1.801915    1.871073    2.176953
      2          6           0        0.870120    1.519876    1.462998
      3          7           0       -0.349253    1.304354    2.015003
      4          6           0       -1.381015    0.693097    1.386141
      5          8           0       -2.457328    0.610089    1.963381
      6          7           0       -1.127856    0.181688    0.148494
      7          6           0       -2.156099   -0.511961   -0.627387
      8          9           0       -1.538486   -1.512265   -1.332300
      9          9           0       -2.587117    0.368014   -1.582783
     10          6           0       -3.423223   -1.172535    0.004659
     11          9           0       -4.147804   -1.754747   -1.015024
     12          8           0       -4.381996   -0.373899    0.696141
     13          6           0       -4.821182    0.734187   -0.043719
     14          9           0       -5.156719    0.386676   -1.296121
     15          9           0       -5.901246    1.259756    0.564176
     16          9           0       -3.853980    1.670001   -0.079622
     17          6           0       -2.932689   -2.327378    0.883231
     18          9           0       -2.291480   -3.278604    0.163241
     19          9           0       -2.063901   -1.936583    1.843334
     20          9           0       -3.961373   -2.948872    1.510840
     21          6           0        0.021213    0.529458   -0.548582
     22          8           0        0.218700    0.163341   -1.705055
     23          7           0        0.951405    1.299739    0.118066
     24          6           0        2.231449    1.564868   -0.528126
     25          9           0        2.728112    2.735764   -0.036246
     26          9           0        2.018674    1.843763   -1.845521
     27          6           0        3.277333    0.431284   -0.385379
     28          9           0        3.591326    0.281747    0.935484
     29          8           0        2.685134   -0.814772   -0.772445
     30          6           0        3.620015   -1.852422   -0.911058
     31          9           0        2.955750   -3.022361   -0.929126
     32          9           0        4.483190   -1.862536    0.115928
     33          9           0        4.277684   -1.707998   -2.071576
     34          6           0        4.508128    0.908084   -1.169286
     35          9           0        4.941443    2.126094   -0.778407
     36          9           0        4.266418    0.971445   -2.497563
     37          9           0        5.557089    0.065795   -1.005654
     38          1           0       -0.472352    1.556739    2.986711
 ---------------------------------------------------------------------

 SCF Done:  E(RCAM-B3LYP) =  -2756.51856586     A.U. after   13 cycles

 Alpha  occ. eigenvalues --  -24.83901 -24.83818 -24.83749 -24.83691 -24.83562
 Alpha  occ. eigenvalues --  -24.83421 -24.83376 -24.83337 -24.83268 -24.83252
 Alpha  occ. eigenvalues --  -24.83225 -24.83224 -24.83183 -24.83057 -24.82954
 Alpha  occ. eigenvalues --  -24.82951 -24.82781 -24.82736 -19.33444 -19.32446
 Alpha  occ. eigenvalues --  -19.24993 -19.24037 -19.23939 -14.53987 -14.53583
 Alpha  occ. eigenvalues --  -14.50332 -10.59874 -10.59414 -10.55675 -10.55600
 Alpha  occ. eigenvalues --  -10.54168 -10.53876 -10.49693 -10.49350 -10.47662
 Alpha  occ. eigenvalues --  -10.46143 -10.46004  -1.43509  -1.42904  -1.41991
 Alpha  occ. eigenvalues --   -1.41989  -1.39498  -1.39157  -1.35987  -1.35181
 Alpha  occ. eigenvalues --   -1.33827  -1.33554  -1.33249  -1.33121  -1.33044
 Alpha  occ. eigenvalues --   -1.32765  -1.32435  -1.32367  -1.31966  -1.31724
 Alpha  occ. eigenvalues --   -1.23996  -1.20965  -1.20302  -1.18563  -1.18308
 Alpha  occ. eigenvalues --   -1.10669  -1.09149  -1.06457  -0.94107  -0.93610
 Alpha  occ. eigenvalues --   -0.86324  -0.84855  -0.82423  -0.81510  -0.81077
 Alpha  occ. eigenvalues --   -0.80512  -0.77822  -0.75675  -0.75104  -0.74347
 Alpha  occ. eigenvalues --   -0.73127  -0.72100  -0.71880  -0.70996  -0.70583
 Alpha  occ. eigenvalues --   -0.70257  -0.69788  -0.69280  -0.68752  -0.68297
 Alpha  occ. eigenvalues --   -0.67750  -0.67608  -0.66859  -0.66744  -0.66144
 Alpha  occ. eigenvalues --   -0.65507  -0.64794  -0.63461  -0.62480  -0.60241
 Alpha  occ. eigenvalues --   -0.59933  -0.57949  -0.57713  -0.57409  -0.57092
 Alpha  occ. eigenvalues --   -0.56906  -0.56580  -0.56483  -0.56238  -0.55925
 Alpha  occ. eigenvalues --   -0.55843  -0.55237  -0.55224  -0.55152  -0.54879
 Alpha  occ. eigenvalues --   -0.54634  -0.54416  -0.53948  -0.53815  -0.53485
 Alpha  occ. eigenvalues --   -0.53300  -0.52826  -0.52672  -0.52543  -0.52095
 Alpha  occ. eigenvalues --   -0.52029  -0.51687  -0.51332  -0.51183  -0.51040
 Alpha  occ. eigenvalues --   -0.50864  -0.50672  -0.50270  -0.50231  -0.50121
 Alpha  occ. eigenvalues --   -0.49744  -0.49188  -0.49113  -0.48939  -0.48671
 Alpha  occ. eigenvalues --   -0.46218  -0.46005  -0.44984  -0.44391  -0.40631
 Alpha  occ. eigenvalues --   -0.40253  -0.39536  -0.39127  -0.38066  -0.36220
 Alpha virt. eigenvalues --    0.00036   0.00305   0.04787   0.05705   0.07141
 Alpha virt. eigenvalues --    0.09346   0.11585   0.12019   0.13094   0.14914
 Alpha virt. eigenvalues --    0.17035   0.17290   0.19208   0.19600   0.19761

 Mulliken charges:
               1
     1  O   -0.490224
     2  C    0.803033
     3  N   -0.604465
     4  C    0.818103
     5  O   -0.507304
     6  N   -0.633385
     7  C    0.775843
     8  F   -0.261617
     9  F   -0.265939
    10  C    0.414217
    11  F   -0.274306
    12  O   -0.485317
    13  C    1.000653
    14  F   -0.244093
    15  F   -0.239848
    16  F   -0.250559
    17  C    0.807804
    18  F   -0.243708
    19  F   -0.239848
    20  F   -0.248568
    21  C    0.878545
    22  O   -0.477055
    23  N   -0.650618
    24  C    0.760140
    25  F   -0.254079
    26  F   -0.249402
    27  C    0.436374
    28  F   -0.255493
    29  O   -0.509390
    30  C    0.997971
    31  F   -0.238108
    32  F   -0.242456
    33  F   -0.241457
    34  C    0.815415
    35  F   -0.243354
    36  F   -0.244744
    37  F   -0.258397
    38  H    0.345638
 Sum of Mulliken charges =   0.00000

 Dipole moment (field-independent basis, Debye):
    X=             -0.1228    Y=              0.7907    Z=              1.8743  Tot=              2.0379
 Quadrupole moment (field-independent basis, Debye-Ang):
   XX=           -206.6830   YY=           -193.3033   ZZ=           -198.5090
   XY=             -6.6044   XZ=             -0.6050   YZ=             -0.1814

 Normal termination of Gaussian 09 at Sun Mar  3 17:21:27 2024.
