 Gaussian 09, Revision D.01,
 Gaussian 09:  ES64L-G09RevD.01 24-Apr-2013

 ----------------------------------------------------------------------
 #p CAM-B3LYP/6-31G(d,p) SCRF=(PCM,Solvent=Generic,Read) NoSymm out=wfn
 ----------------------------------------------------------------------

 -------------------
 Title A230421840_p1
 -------------------
 Symbolic Z-matrix:
 Charge =  1 Multiplicity = 2

                          Input orientation:
 ---------------------------------------------------------------------
 Center     Atomic      Atomic             Coordinates (Angstroms)
 Number     Number       Type             X           Y           Z
 ---------------------------------------------------------------------
      1          6           0       -3.252630    2.871470    0.313017
      2          6           0       -2.490210    1.864303    1.162439
      3          7           0       -1.673308    0.973390    0.337985
      4          6           0       -2.246554   -0.193835   -0.121018
      5          8           0       -3.417865   -0.487873    0.121302
      6          7           0       -1.419133   -1.020852   -0.851165
      7          6           0       -1.938041   -2.325820   -1.260423
      8          6           0       -1.742527   -3.377205   -0.176566
      9          6           0       -0.094986   -0.731811   -1.109103
     10          8           0        0.662591   -1.585512   -1.567233
     11          7           0        0.324934    0.539477   -0.805990
     12          6           0        1.689955    0.914113   -1.156462
     13          9           0        1.774028    2.265944   -1.334069
     14          9           0        1.928091    0.442210   -2.426762
     15          6           0        2.861123    0.433577   -0.253140
     16          9           0        4.028866    0.799691   -0.876404
     17          8           0        2.876645   -0.996060   -0.198922
     18          6           0        3.853827   -1.525721    0.654121
     19          9           0        5.013299   -0.858280    0.558825
     20          9           0        4.063080   -2.813998    0.326271
     21          9           0        3.395520   -1.477184    1.917265
     22          6           0        2.772230    1.153950    1.093546
     23          9           0        1.689538    0.737391    1.792819
     24          9           0        3.850441    0.890513    1.871710
     25          9           0        2.716758    2.494450    0.977295
     26          6           0       -0.395530    1.370933    0.010146
     27          8           0        0.083583    2.412104    0.456379
     28          1           0       -3.856360    3.525516    0.949554
     29          1           0       -2.566874    3.496948   -0.267739
     30          1           0       -3.921570    2.366797   -0.391651
     31          1           0       -3.199744    1.273884    1.753194
     32          1           0       -1.850711    2.397905    1.874632
     33          1           0       -1.433756   -2.648992   -2.178345
     34          1           0       -3.004831   -2.238819   -1.495890
     35          1           0       -2.261156   -3.095102    0.745449
     36          1           0       -2.136663   -4.342494   -0.508750
     37          1           0       -0.682062   -3.505004    0.063679
 ---------------------------------------------------------------------

 SCF Done:  E(UCAM-B3LYP) =  -1788.08538198     A.U. after   44 cycles

 Alpha  occ. eigenvalues --  -24.86682 -24.86676 -24.86131 -24.85801 -24.85630
 Alpha  occ. eigenvalues --  -24.85522 -24.85430 -24.85328 -24.85140 -19.35986
 Alpha  occ. eigenvalues --  -19.35776 -19.31231 -19.30301 -14.65964 -14.59393
 Alpha  occ. eigenvalues --  -14.58705 -10.61790 -10.58168 -10.57687 -10.54710
 Alpha  occ. eigenvalues --  -10.52466 -10.52229 -10.51714 -10.39710 -10.36321
 Alpha  occ. eigenvalues --  -10.32607 -10.29792  -1.45434  -1.44312  -1.42553
 Alpha  occ. eigenvalues --   -1.37848  -1.35845  -1.35466  -1.35347  -1.35008
 Alpha  occ. eigenvalues --   -1.34440  -1.31589  -1.26349  -1.24608  -1.23372
 Alpha  occ. eigenvalues --   -1.18494  -1.15518  -1.13777  -0.97508  -0.95339
 Alpha  occ. eigenvalues --   -0.92481  -0.90136  -0.86414  -0.85544  -0.84522
 Alpha  occ. eigenvalues --   -0.81875  -0.81239  -0.78676  -0.77023  -0.75531
 Alpha  occ. eigenvalues --   -0.75220  -0.73579  -0.72255  -0.71869  -0.71388
 Alpha  occ. eigenvalues --   -0.70832  -0.69161  -0.68835  -0.68207  -0.67196
 Alpha  occ. eigenvalues --   -0.64742  -0.63801  -0.62819  -0.62086  -0.61376
 Alpha  occ. eigenvalues --   -0.61117  -0.60486  -0.59878  -0.59325  -0.58741
 Alpha  occ. eigenvalues --   -0.58577  -0.58303  -0.57941  -0.57270  -0.56686
 Alpha  occ. eigenvalues --   -0.56117  -0.55827  -0.55395  -0.54914  -0.54383
 Alpha  occ. eigenvalues --   -0.54183  -0.53924  -0.53207  -0.53074  -0.52448
 Alpha  occ. eigenvalues --   -0.52072  -0.51892  -0.51621  -0.51222  -0.49314
 Alpha  occ. eigenvalues --   -0.49096  -0.48966  -0.48615  -0.47981  -0.47573
 Alpha  occ. eigenvalues --   -0.46223  -0.45954  -0.45155  -0.43108  -0.42752
 Alpha virt. eigenvalues --   -0.07293  -0.05562   0.02416   0.03319   0.04808
 Alpha virt. eigenvalues --    0.08313   0.10054   0.10758   0.11345   0.12624
 Alpha virt. eigenvalues --    0.13063   0.14916   0.15225   0.15718   0.16435

  Beta  occ. eigenvalues --  -24.86680 -24.86675 -24.86116 -24.85800 -24.85629
  Beta  occ. eigenvalues --  -24.85522 -24.85430 -24.85328 -24.85140 -19.35774
  Beta  occ. eigenvalues --  -19.35202 -19.31163 -19.30104 -14.64761 -14.59448
  Beta  occ. eigenvalues --  -14.58363 -10.61790 -10.58168 -10.57686 -10.54946
  Beta  occ. eigenvalues --  -10.52586 -10.52232 -10.51786 -10.39692 -10.36314
  Beta  occ. eigenvalues --  -10.32460 -10.29746  -1.45433  -1.44311  -1.42541
  Beta  occ. eigenvalues --   -1.37848  -1.35841  -1.35465  -1.35346  -1.34985
  Beta  occ. eigenvalues --   -1.34437  -1.30610  -1.25491  -1.24193  -1.23356
  Beta  occ. eigenvalues --   -1.17066  -1.14835  -1.13085  -0.97429  -0.94916
  Beta  occ. eigenvalues --   -0.92201  -0.89942  -0.86128  -0.85358  -0.84359
  Beta  occ. eigenvalues --   -0.81569  -0.81069  -0.78512  -0.76682  -0.75501
  Beta  occ. eigenvalues --   -0.75188  -0.73469  -0.72205  -0.71865  -0.70860
  Beta  occ. eigenvalues --   -0.69923  -0.69021  -0.68288  -0.68023  -0.66630
  Beta  occ. eigenvalues --   -0.63909  -0.63186  -0.62343  -0.61396  -0.60472
  Beta  occ. eigenvalues --   -0.60355  -0.60200  -0.59696  -0.59226  -0.58690
  Beta  occ. eigenvalues --   -0.58327  -0.58231  -0.57754  -0.57064  -0.56624
  Beta  occ. eigenvalues --   -0.55961  -0.55698  -0.55325  -0.54620  -0.54279
  Beta  occ. eigenvalues --   -0.53925  -0.53369  -0.53122  -0.52661  -0.52057
  Beta  occ. eigenvalues --   -0.52005  -0.51308  -0.51212  -0.50968  -0.49114
  Beta  occ. eigenvalues --   -0.48968  -0.48461  -0.47463  -0.47449  -0.46145
  Beta  occ. eigenvalues --   -0.45595  -0.44241  -0.42427  -0.41041
  Beta virt. eigenvalues --   -0.28560  -0.06185  -0.04594   0.02470   0.03702
  Beta virt. eigenvalues --    0.05535   0.08598   0.10152   0.11138   0.11439
  Beta virt. eigenvalues --    0.12774   0.13239   0.15039   0.15330   0.15879

 Mulliken charges and spin densities:
               1          2
     1  C   -0.332578   0.021899
     2  C   -0.093357  -0.000039
     3  N   -0.539700   0.158064
     4  C    0.863489  -0.071537
     5  O   -0.442601   0.031876
     6  N   -0.434305   0.546570
     7  C   -0.117579   0.002840
     8  C   -0.338193   0.075851
     9  C    0.891460  -0.136912
    10  O   -0.349245   0.306628
    11  N   -0.635878  -0.015219
    12  C    0.742801  -0.000910
    13  F   -0.234458   0.000609
    14  F   -0.255845   0.003217
    15  C    0.444774  -0.000769
    16  F   -0.256859  -0.000058
    17  O   -0.512041   0.000534
    18  C    1.001115  -0.000058
    19  F   -0.237126   0.000045
    20  F   -0.234308   0.000003
    21  F   -0.246385  -0.000002
    22  C    0.819220  -0.000018
    23  F   -0.252325   0.000288
    24  F   -0.248331   0.000003
    25  F   -0.230240   0.000064
    26  C    0.873580  -0.041177
    27  O   -0.444404   0.077684
    28  H    0.160678   0.002455
    29  H    0.145782   0.000029
    30  H    0.142536  -0.000764
    31  H    0.187796   0.004532
    32  H    0.191596   0.003194
    33  H    0.222367   0.014143
    34  H    0.228140   0.016426
    35  H    0.167221  -0.002525
    36  H    0.189344   0.005046
    37  H    0.163859  -0.002013
 Sum of Mulliken charges =   1.00000   1.00000

 Dipole moment (field-independent basis, Debye):
    X=             -7.9658    Y=             -3.4443    Z=             -1.9886  Tot=              8.9035
 Quadrupole moment (field-independent basis, Debye-Ang):
   XX=           -129.5876   YY=           -123.9838   ZZ=           -137.2950
   XY=              0.8610   XZ=              3.8296   YZ=              6.4706

 Normal termination of Gaussian 09 at Sun Mar  3 18:11:35 2024.
