 Gaussian 09, Revision D.01,
 Gaussian 09:  ES64L-G09RevD.01 24-Apr-2013

 ----------------------------------------------------------------------
 #p CAM-B3LYP/6-31G(d,p) SCRF=(PCM,Solvent=Generic,Read) NoSymm out=wfn
 ----------------------------------------------------------------------

 ------------------
 Title A230421840_0
 ------------------
 Symbolic Z-matrix:
 Charge =  0 Multiplicity = 1

                          Input orientation:
 ---------------------------------------------------------------------
 Center     Atomic      Atomic             Coordinates (Angstroms)
 Number     Number       Type             X           Y           Z
 ---------------------------------------------------------------------
      1          6           0       -3.252630    2.871470    0.313017
      2          6           0       -2.490210    1.864303    1.162439
      3          7           0       -1.673308    0.973390    0.337985
      4          6           0       -2.246554   -0.193835   -0.121018
      5          8           0       -3.417865   -0.487873    0.121302
      6          7           0       -1.419133   -1.020852   -0.851165
      7          6           0       -1.938041   -2.325820   -1.260423
      8          6           0       -1.742527   -3.377205   -0.176566
      9          6           0       -0.094986   -0.731811   -1.109103
     10          8           0        0.662591   -1.585512   -1.567233
     11          7           0        0.324934    0.539477   -0.805990
     12          6           0        1.689955    0.914113   -1.156462
     13          9           0        1.774028    2.265944   -1.334069
     14          9           0        1.928091    0.442210   -2.426762
     15          6           0        2.861123    0.433577   -0.253140
     16          9           0        4.028866    0.799691   -0.876404
     17          8           0        2.876645   -0.996060   -0.198922
     18          6           0        3.853827   -1.525721    0.654121
     19          9           0        5.013299   -0.858280    0.558825
     20          9           0        4.063080   -2.813998    0.326271
     21          9           0        3.395520   -1.477184    1.917265
     22          6           0        2.772230    1.153950    1.093546
     23          9           0        1.689538    0.737391    1.792819
     24          9           0        3.850441    0.890513    1.871710
     25          9           0        2.716758    2.494450    0.977295
     26          6           0       -0.395530    1.370933    0.010146
     27          8           0        0.083583    2.412104    0.456379
     28          1           0       -3.856360    3.525516    0.949554
     29          1           0       -2.566874    3.496948   -0.267739
     30          1           0       -3.921570    2.366797   -0.391651
     31          1           0       -3.199744    1.273884    1.753194
     32          1           0       -1.850711    2.397905    1.874632
     33          1           0       -1.433756   -2.648992   -2.178345
     34          1           0       -3.004831   -2.238819   -1.495890
     35          1           0       -2.261156   -3.095102    0.745449
     36          1           0       -2.136663   -4.342494   -0.508750
     37          1           0       -0.682062   -3.505004    0.063679
 ---------------------------------------------------------------------

 SCF Done:  E(RCAM-B3LYP) =  -1788.40323607     A.U. after   13 cycles

 Alpha  occ. eigenvalues --  -24.83565 -24.83463 -24.83316 -24.83065 -24.83019
 Alpha  occ. eigenvalues --  -24.82695 -24.82542 -24.82512 -24.81608 -19.32592
 Alpha  occ. eigenvalues --  -19.22993 -19.22757 -19.22544 -14.52219 -14.49396
 Alpha  occ. eigenvalues --  -14.49316 -10.59308 -10.55306 -10.53031 -10.48790
 Alpha  occ. eigenvalues --  -10.44834 -10.44809 -10.43725 -10.31111 -10.31091
 Alpha  occ. eigenvalues --  -10.25751 -10.25702  -1.43014  -1.41640  -1.38374
 Alpha  occ. eigenvalues --   -1.34935  -1.33221  -1.33055  -1.32844  -1.32057
 Alpha  occ. eigenvalues --   -1.30678  -1.21572  -1.20270  -1.16523  -1.16215
 Alpha  occ. eigenvalues --   -1.08546  -1.06274  -1.04760  -0.93290  -0.87543
 Alpha  occ. eigenvalues --   -0.85469  -0.83588  -0.81814  -0.78849  -0.78140
 Alpha  occ. eigenvalues --   -0.76216  -0.74021  -0.73286  -0.72345  -0.71241
 Alpha  occ. eigenvalues --   -0.70312  -0.70216  -0.69300  -0.68560  -0.68011
 Alpha  occ. eigenvalues --   -0.66065  -0.65480  -0.64002  -0.61337  -0.59782
 Alpha  occ. eigenvalues --   -0.59151  -0.57555  -0.56931  -0.56315  -0.55863
 Alpha  occ. eigenvalues --   -0.55499  -0.55446  -0.54864  -0.54504  -0.54061
 Alpha  occ. eigenvalues --   -0.53876  -0.53441  -0.52956  -0.52804  -0.52643
 Alpha  occ. eigenvalues --   -0.51972  -0.51647  -0.51279  -0.50849  -0.50571
 Alpha  occ. eigenvalues --   -0.50362  -0.49909  -0.49825  -0.49226  -0.48746
 Alpha  occ. eigenvalues --   -0.48471  -0.46618  -0.46135  -0.45605  -0.44917
 Alpha  occ. eigenvalues --   -0.44747  -0.44231  -0.42091  -0.41950  -0.38920
 Alpha  occ. eigenvalues --   -0.38565  -0.37749  -0.35850  -0.35065  -0.34720
 Alpha virt. eigenvalues --    0.01875   0.02486   0.06670   0.07835   0.12433
 Alpha virt. eigenvalues --    0.14278   0.14877   0.16660   0.16754   0.17618
 Alpha virt. eigenvalues --    0.18704   0.19797   0.19834   0.20205   0.20754

 Mulliken charges:
               1
     1  C   -0.326509
     2  C   -0.063984
     3  N   -0.569896
     4  C    0.828725
     5  O   -0.528099
     6  N   -0.565992
     7  C   -0.061668
     8  C   -0.327816
     9  C    0.834455
    10  O   -0.502977
    11  N   -0.630927
    12  C    0.742259
    13  F   -0.249659
    14  F   -0.267443
    15  C    0.434776
    16  F   -0.269764
    17  O   -0.499392
    18  C    0.994409
    19  F   -0.243027
    20  F   -0.238681
    21  F   -0.249395
    22  C    0.816128
    23  F   -0.250187
    24  F   -0.256787
    25  F   -0.235050
    26  C    0.836261
    27  O   -0.519857
    28  H    0.126965
    29  H    0.126550
    30  H    0.126441
    31  H    0.152738
    32  H    0.153392
    33  H    0.151047
    34  H    0.153268
    35  H    0.125216
    36  H    0.126612
    37  H    0.127867
 Sum of Mulliken charges =   0.00000

 Dipole moment (field-independent basis, Debye):
    X=             -2.8024    Y=             -0.5952    Z=              0.5213  Tot=              2.9119
 Quadrupole moment (field-independent basis, Debye-Ang):
   XX=           -153.9085   YY=           -148.0385   ZZ=           -147.1788
   XY=             -2.8952   XZ=              3.3303   YZ=              0.0171

 Normal termination of Gaussian 09 at Sun Mar  3 18:10:01 2024.
