 Gaussian 09, Revision D.01,
 Gaussian 09:  ES64L-G09RevD.01 24-Apr-2013

 ----------------------------------------------------------------------
 #p CAM-B3LYP/6-31G(d,p) SCRF=(PCM,Solvent=Generic,Read) NoSymm out=wfn
 ----------------------------------------------------------------------

 -------------------
 Title A904173280_p1
 -------------------
 Symbolic Z-matrix:
 Charge =  1 Multiplicity = 2

                          Input orientation:
 ---------------------------------------------------------------------
 Center     Atomic      Atomic             Coordinates (Angstroms)
 Number     Number       Type             X           Y           Z
 ---------------------------------------------------------------------
      1          8           0       -3.977314    0.908981    0.188241
      2          6           0       -2.835263    0.506861   -0.032119
      3          7           0       -2.071153    1.002492   -1.061482
      4          6           0       -2.578660    2.140613   -1.786309
      5          9           0       -2.226147    3.269353   -1.113610
      6          6           0       -0.797672    0.568888   -1.343436
      7          8           0       -0.086695    1.148642   -2.161794
      8          7           0       -0.364827   -0.534769   -0.650603
      9          6           0        0.984927   -1.010622   -0.922741
     10          9           0        1.070478   -2.323670   -0.560134
     11          9           0        1.163581   -1.049849   -2.274880
     12          6           0        2.123948   -0.201093   -0.249885
     13          9           0        2.140792    1.063756   -0.763038
     14          8           0        1.837795   -0.036007    1.144014
     15          6           0        2.922380    0.468443    1.877068
     16          9           0        3.506987    1.491144    1.235581
     17          9           0        3.810087   -0.514827    2.092666
     18          9           0        2.464435    0.906606    3.064537
     19          6           0        3.419858   -0.934078   -0.624810
     20          9           0        3.559234   -1.110967   -1.956551
     21          9           0        4.514505   -0.244405   -0.220722
     22          9           0        3.496387   -2.152763   -0.044633
     23          6           0       -0.966078   -0.936425    0.518233
     24          8           0       -0.399649   -1.661380    1.335048
     25          7           0       -2.230729   -0.448375    0.749221
     26          6           0       -2.975949   -0.985820    1.860789
     27          9           0       -3.650151   -2.086268    1.429780
     28          1           0       -3.669703    2.117919   -1.862387
     29          1           0       -2.157132    2.199547   -2.794117
     30          1           0       -3.707586   -0.270101    2.246758
     31          1           0       -2.320687   -1.291825    2.681316
 ---------------------------------------------------------------------

 SCF Done:  E(UCAM-B3LYP) =  -1907.88764429     A.U. after   48 cycles

 Alpha  occ. eigenvalues --  -24.88527 -24.88168 -24.86786 -24.86204 -24.86021
 Alpha  occ. eigenvalues --  -24.85988 -24.85891 -24.85675 -24.85250 -24.82747
 Alpha  occ. eigenvalues --  -24.82299 -19.38733 -19.38538 -19.36808 -19.36195
 Alpha  occ. eigenvalues --  -14.61722 -14.60709 -14.60000 -10.62423 -10.58986
 Alpha  occ. eigenvalues --  -10.58336 -10.56315 -10.55580 -10.55268 -10.53117
 Alpha  occ. eigenvalues --  -10.45616 -10.45071  -1.45943  -1.44955  -1.43749
 Alpha  occ. eigenvalues --   -1.39555  -1.37247  -1.36091  -1.35787  -1.35734
 Alpha  occ. eigenvalues --   -1.35170  -1.35087  -1.34662  -1.32637  -1.29857
 Alpha  occ. eigenvalues --   -1.28712  -1.24265  -1.20660  -1.16917  -1.15619
 Alpha  occ. eigenvalues --   -0.98116  -0.92777  -0.92123  -0.91714  -0.85616
 Alpha  occ. eigenvalues --   -0.84589  -0.83851  -0.83349  -0.79894  -0.76962
 Alpha  occ. eigenvalues --   -0.76016  -0.74382  -0.73401  -0.72291  -0.71956
 Alpha  occ. eigenvalues --   -0.71358  -0.70672  -0.70289  -0.69647  -0.69162
 Alpha  occ. eigenvalues --   -0.67741  -0.67190  -0.66324  -0.66172  -0.64802
 Alpha  occ. eigenvalues --   -0.64338  -0.63373  -0.62622  -0.62131  -0.61531
 Alpha  occ. eigenvalues --   -0.61317  -0.60384  -0.60206  -0.59704  -0.59409
 Alpha  occ. eigenvalues --   -0.58697  -0.58200  -0.57523  -0.56839  -0.56473
 Alpha  occ. eigenvalues --   -0.55738  -0.54975  -0.54732  -0.54360  -0.53655
 Alpha  occ. eigenvalues --   -0.53430  -0.53251  -0.52645  -0.52313  -0.51580
 Alpha  occ. eigenvalues --   -0.51399  -0.50636  -0.50565  -0.49306  -0.48754
 Alpha  occ. eigenvalues --   -0.48505  -0.48001  -0.47569  -0.47330  -0.46772
 Alpha virt. eigenvalues --   -0.09070  -0.08109   0.00919   0.01332   0.04924
 Alpha virt. eigenvalues --    0.08617   0.09238   0.10771   0.12503   0.13237
 Alpha virt. eigenvalues --    0.13571   0.14119   0.14480   0.15490   0.16049

  Beta  occ. eigenvalues --  -24.88483 -24.88142 -24.86777 -24.86204 -24.86021
  Beta  occ. eigenvalues --  -24.85988 -24.85891 -24.85674 -24.85250 -24.82721
  Beta  occ. eigenvalues --  -24.82290 -19.37730 -19.37551 -19.36801 -19.35508
  Beta  occ. eigenvalues --  -14.61674 -14.60616 -14.59935 -10.62423 -10.58989
  Beta  occ. eigenvalues --  -10.58336 -10.56411 -10.55667 -10.55335 -10.53118
  Beta  occ. eigenvalues --  -10.45587 -10.45053  -1.45936  -1.44921  -1.43724
  Beta  occ. eigenvalues --   -1.39537  -1.37170  -1.36090  -1.35786  -1.35597
  Beta  occ. eigenvalues --   -1.35121  -1.35080  -1.34662  -1.31930  -1.28223
  Beta  occ. eigenvalues --   -1.27481  -1.24243  -1.19408  -1.16412  -1.15133
  Beta  occ. eigenvalues --   -0.98087  -0.92705  -0.91618  -0.91256  -0.85552
  Beta  occ. eigenvalues --   -0.84144  -0.83337  -0.82878  -0.79848  -0.76912
  Beta  occ. eigenvalues --   -0.76005  -0.74324  -0.73374  -0.72258  -0.71902
  Beta  occ. eigenvalues --   -0.71315  -0.70599  -0.70191  -0.69581  -0.69127
  Beta  occ. eigenvalues --   -0.67370  -0.66413  -0.66073  -0.65360  -0.64323
  Beta  occ. eigenvalues --   -0.63863  -0.63331  -0.62175  -0.61858  -0.61127
  Beta  occ. eigenvalues --   -0.61068  -0.60325  -0.59849  -0.59619  -0.59346
  Beta  occ. eigenvalues --   -0.58615  -0.58178  -0.57362  -0.56783  -0.55814
  Beta  occ. eigenvalues --   -0.55690  -0.54854  -0.54665  -0.53641  -0.53357
  Beta  occ. eigenvalues --   -0.52630  -0.52298  -0.52018  -0.51574  -0.51498
  Beta  occ. eigenvalues --   -0.50383  -0.48668  -0.48190  -0.47754  -0.47546
  Beta  occ. eigenvalues --   -0.47294  -0.46557  -0.44419  -0.44079
  Beta virt. eigenvalues --   -0.31903  -0.08772  -0.07889   0.00939   0.01368
  Beta virt. eigenvalues --    0.04998   0.08677   0.09363   0.10933   0.12561
  Beta virt. eigenvalues --    0.13303   0.13770   0.14299   0.14567   0.15589

 Mulliken charges and spin densities:
               1          2
     1  O   -0.335880   0.371554
     2  C    0.949364  -0.052959
     3  N   -0.595096   0.032764
     4  C    0.233870   0.004540
     5  F   -0.277042   0.002914
     6  C    0.920601  -0.041141
     7  O   -0.362357   0.257114
     8  N   -0.645781   0.023546
     9  C    0.750375  -0.004228
    10  F   -0.235855   0.010348
    11  F   -0.237196   0.006352
    12  C    0.444443   0.000018
    13  F   -0.247687   0.002091
    14  O   -0.518319   0.001733
    15  C    1.004659  -0.000051
    16  F   -0.236719   0.000099
    17  F   -0.236561  -0.000001
    18  F   -0.234827   0.000002
    19  C    0.824127   0.000001
    20  F   -0.238229  -0.000005
    21  F   -0.251047  -0.000019
    22  F   -0.240903   0.000029
    23  C    0.950513  -0.056220
    24  O   -0.325594   0.375026
    25  N   -0.594522   0.046889
    26  C    0.231921   0.009110
    27  F   -0.270660   0.007874
    28  H    0.190714  -0.000286
    29  H    0.192838   0.001266
    30  H    0.195755   0.001961
    31  H    0.195096  -0.000323
 Sum of Mulliken charges =   1.00000   1.00000

 Dipole moment (field-independent basis, Debye):
    X=             -8.7714    Y=              0.6781    Z=             -0.4178  Tot=              8.8074
 Quadrupole moment (field-independent basis, Debye-Ang):
   XX=           -116.5095   YY=           -142.3281   ZZ=           -124.2938
   XY=             -5.3862   XZ=              2.9907   YZ=             -4.0463

 Normal termination of Gaussian 09 at Sun Mar  3 17:57:51 2024.
