 Gaussian 09, Revision D.01,
 Gaussian 09:  ES64L-G09RevD.01 24-Apr-2013

 ----------------------------------------------------------------------
 #p CAM-B3LYP/6-31G(d,p) SCRF=(PCM,Solvent=Generic,Read) NoSymm out=wfn
 ----------------------------------------------------------------------

 ------------------
 Title A904173280_0
 ------------------
 Symbolic Z-matrix:
 Charge =  0 Multiplicity = 1

                          Input orientation:
 ---------------------------------------------------------------------
 Center     Atomic      Atomic             Coordinates (Angstroms)
 Number     Number       Type             X           Y           Z
 ---------------------------------------------------------------------
      1          8           0       -3.977314    0.908981    0.188241
      2          6           0       -2.835263    0.506861   -0.032119
      3          7           0       -2.071153    1.002492   -1.061482
      4          6           0       -2.578660    2.140613   -1.786309
      5          9           0       -2.226147    3.269353   -1.113610
      6          6           0       -0.797672    0.568888   -1.343436
      7          8           0       -0.086695    1.148642   -2.161794
      8          7           0       -0.364827   -0.534769   -0.650603
      9          6           0        0.984927   -1.010622   -0.922741
     10          9           0        1.070478   -2.323670   -0.560134
     11          9           0        1.163581   -1.049849   -2.274880
     12          6           0        2.123948   -0.201093   -0.249885
     13          9           0        2.140792    1.063756   -0.763038
     14          8           0        1.837795   -0.036007    1.144014
     15          6           0        2.922380    0.468443    1.877068
     16          9           0        3.506987    1.491144    1.235581
     17          9           0        3.810087   -0.514827    2.092666
     18          9           0        2.464435    0.906606    3.064537
     19          6           0        3.419858   -0.934078   -0.624810
     20          9           0        3.559234   -1.110967   -1.956551
     21          9           0        4.514505   -0.244405   -0.220722
     22          9           0        3.496387   -2.152763   -0.044633
     23          6           0       -0.966078   -0.936425    0.518233
     24          8           0       -0.399649   -1.661380    1.335048
     25          7           0       -2.230729   -0.448375    0.749221
     26          6           0       -2.975949   -0.985820    1.860789
     27          9           0       -3.650151   -2.086268    1.429780
     28          1           0       -3.669703    2.117919   -1.862387
     29          1           0       -2.157132    2.199547   -2.794117
     30          1           0       -3.707586   -0.270101    2.246758
     31          1           0       -2.320687   -1.291825    2.681316
 ---------------------------------------------------------------------

 SCF Done:  E(RCAM-B3LYP) =  -1908.22817517     A.U. after   13 cycles

 Alpha  occ. eigenvalues --  -24.83762 -24.83619 -24.83528 -24.83419 -24.83080
 Alpha  occ. eigenvalues --  -24.82980 -24.82954 -24.82882 -24.82798 -24.77334
 Alpha  occ. eigenvalues --  -24.77280 -19.33175 -19.24309 -19.24220 -19.24091
 Alpha  occ. eigenvalues --  -14.52982 -14.51036 -14.51025 -10.59702 -10.55475
 Alpha  occ. eigenvalues --  -10.53469 -10.49103 -10.46241 -10.46223 -10.45521
 Alpha  occ. eigenvalues --  -10.39251 -10.39164  -1.43350  -1.41816  -1.39147
 Alpha  occ. eigenvalues --   -1.35743  -1.33668  -1.33404  -1.32841  -1.32204
 Alpha  occ. eigenvalues --   -1.31649  -1.30110  -1.29999  -1.22882  -1.20717
 Alpha  occ. eigenvalues --   -1.17827  -1.17706  -1.09830  -1.07751  -1.06496
 Alpha  occ. eigenvalues --   -0.93641  -0.86338  -0.83807  -0.83622  -0.82123
 Alpha  occ. eigenvalues --   -0.78492  -0.76228  -0.75751  -0.74713  -0.73145
 Alpha  occ. eigenvalues --   -0.72285  -0.70602  -0.69972  -0.68640  -0.68281
 Alpha  occ. eigenvalues --   -0.67244  -0.66595  -0.64845  -0.63845  -0.63547
 Alpha  occ. eigenvalues --   -0.60565  -0.60260  -0.60010  -0.58374  -0.58185
 Alpha  occ. eigenvalues --   -0.57338  -0.57181  -0.57135  -0.56308  -0.56184
 Alpha  occ. eigenvalues --   -0.55960  -0.55645  -0.54959  -0.54239  -0.53915
 Alpha  occ. eigenvalues --   -0.53659  -0.53300  -0.52814  -0.52650  -0.52298
 Alpha  occ. eigenvalues --   -0.51768  -0.50905  -0.50802  -0.50494  -0.50052
 Alpha  occ. eigenvalues --   -0.49958  -0.49012  -0.48896  -0.46792  -0.46177
 Alpha  occ. eigenvalues --   -0.45870  -0.44747  -0.42645  -0.42559  -0.40413
 Alpha  occ. eigenvalues --   -0.39937  -0.38696  -0.38395  -0.38034  -0.36158
 Alpha virt. eigenvalues --    0.00479   0.00969   0.05644   0.08280   0.10738
 Alpha virt. eigenvalues --    0.13773   0.15361   0.16867   0.17288   0.18788
 Alpha virt. eigenvalues --    0.18926   0.19528   0.20202   0.20362   0.20968

 Mulliken charges:
               1
     1  O   -0.508951
     2  C    0.848536
     3  N   -0.595432
     4  C    0.254820
     5  F   -0.300753
     6  C    0.841927
     7  O   -0.494732
     8  N   -0.648236
     9  C    0.762267
    10  F   -0.253911
    11  F   -0.257165
    12  C    0.437582
    13  F   -0.254713
    14  O   -0.507128
    15  C    0.996536
    16  F   -0.242165
    17  F   -0.242787
    18  F   -0.239740
    19  C    0.813502
    20  F   -0.243649
    21  F   -0.259456
    22  F   -0.245804
    23  C    0.855909
    24  O   -0.496387
    25  N   -0.596343
    26  C    0.253008
    27  F   -0.300887
    28  H    0.156744
    29  H    0.154624
    30  H    0.155843
    31  H    0.156941
 Sum of Mulliken charges =   0.00000

 Dipole moment (field-independent basis, Debye):
    X=             -1.5372    Y=              0.5385    Z=             -0.0075  Tot=              1.6288
 Quadrupole moment (field-independent basis, Debye-Ang):
   XX=           -149.5242   YY=           -154.3214   ZZ=           -137.7904
   XY=             -0.5721   XZ=              5.1993   YZ=              2.6301

 Normal termination of Gaussian 09 at Sun Mar  3 17:55:28 2024.
