 Gaussian 09, Revision D.01,
 Gaussian 09:  ES64L-G09RevD.01 24-Apr-2013

 ----------------------------------------------------------------------
 #p CAM-B3LYP/6-31G(d,p) SCRF=(PCM,Solvent=Generic,Read) NoSymm out=wfn
 ----------------------------------------------------------------------

 ------------------
 Title A897162770_0
 ------------------
 Symbolic Z-matrix:
 Charge =  0 Multiplicity = 1

                          Input orientation:
 ---------------------------------------------------------------------
 Center     Atomic      Atomic             Coordinates (Angstroms)
 Number     Number       Type             X           Y           Z
 ---------------------------------------------------------------------
      1          6           0        0.580143    5.528326   -0.234015
      2          8           0        0.449656    4.210508    0.281537
      3          6           0        0.359575    3.248681   -0.766081
      4          7           0        0.229516    1.950314   -0.138099
      5          6           0       -1.035456    1.478961    0.120946
      6          8           0       -2.043071    2.064994   -0.270043
      7          7           0       -1.112591    0.283227    0.786848
      8          6           0       -2.427688   -0.304261    1.010562
      9          9           0       -3.335965    0.672109    1.276088
     10          9           0       -2.368180   -0.990443    2.198716
     11          6           0       -2.961525   -1.282224   -0.077830
     12          9           0       -1.884815   -1.973312   -0.597556
     13          8           0       -3.783162   -2.342351    0.439589
     14          6           0       -5.073289   -1.942997    0.823192
     15          9           0       -5.657536   -2.952728    1.491739
     16          9           0       -5.021296   -0.868606    1.619285
     17          9           0       -5.804612   -1.665812   -0.266577
     18          6           0       -3.557413   -0.499566   -1.247190
     19          9           0       -4.100369   -1.345771   -2.159132
     20          9           0       -4.527793    0.356147   -0.874715
     21          9           0       -2.606668    0.199904   -1.908795
     22          6           0       -0.013261   -0.513446    1.001804
     23          8           0       -0.124846   -1.698548    1.300992
     24          7           0        1.217063    0.069720    0.826983
     25          6           0        2.395999   -0.726108    1.142339
     26          9           0        3.469489    0.090014    1.369964
     27          9           0        2.180464   -1.275965    2.384793
     28          6           0        2.832458   -1.871647    0.185144
     29          9           0        1.802308   -2.751033    0.019816
     30          8           0        3.877209   -2.604859    0.849953
     31          6           0        4.472851   -3.586828    0.046306
     32          9           0        5.369792   -3.001597   -0.765299
     33          9           0        5.119541   -4.459202    0.841216
     34          9           0        3.561053   -4.252281   -0.678707
     35          6           0        3.188621   -1.263861   -1.172051
     36          9           0        4.233177   -0.416487   -1.101992
     37          9           0        2.135256   -0.599492   -1.707370
     38          9           0        3.514425   -2.215002   -2.079742
     39          6           0        1.377780    1.246165    0.139289
     40          8           0        2.479090    1.612816   -0.266333
     41          1           0        1.492626    5.617738   -0.831373
     42          1           0        0.644948    6.222509    0.608088
     43          1           0       -0.293620    5.792138   -0.837668
     44          1           0       -0.510007    3.466790   -1.396036
     45          1           0        1.260125    3.293367   -1.388587
 ---------------------------------------------------------------------

 SCF Done:  E(RCAM-B3LYP) =  -2910.27973865     A.U. after   13 cycles

 Alpha  occ. eigenvalues --  -24.84482 -24.84174 -24.83859 -24.83733 -24.83703
 Alpha  occ. eigenvalues --  -24.83605 -24.83530 -24.83429 -24.83428 -24.83359
 Alpha  occ. eigenvalues --  -24.83193 -24.83157 -24.82981 -24.82939 -24.82850
 Alpha  occ. eigenvalues --  -24.82753 -24.82198 -24.82105 -19.33259 -19.32892
 Alpha  occ. eigenvalues --  -19.24934 -19.24364 -19.24346 -19.24310 -14.53837
 Alpha  occ. eigenvalues --  -14.53788 -14.51612 -10.59803 -10.59486 -10.55857
 Alpha  occ. eigenvalues --  -10.55503 -10.53688 -10.53607 -10.49310 -10.49236
 Alpha  occ. eigenvalues --  -10.47356 -10.46490 -10.46461 -10.37188 -10.31292
 Alpha  occ. eigenvalues --   -1.43644  -1.43260  -1.42148  -1.41974  -1.39022
 Alpha  occ. eigenvalues --   -1.38689  -1.35677  -1.35548  -1.34141  -1.33639
 Alpha  occ. eigenvalues --   -1.33628  -1.33407  -1.33124  -1.32970  -1.32509
 Alpha  occ. eigenvalues --   -1.32305  -1.31426  -1.31123  -1.24086  -1.20634
 Alpha  occ. eigenvalues --   -1.20347  -1.18776  -1.18508  -1.13777  -1.10591
 Alpha  occ. eigenvalues --   -1.09133  -1.06934  -0.93958  -0.93137  -0.86846
 Alpha  occ. eigenvalues --   -0.84705  -0.84604  -0.82787  -0.82506  -0.79596
 Alpha  occ. eigenvalues --   -0.79050  -0.77086  -0.76077  -0.75625  -0.74751
 Alpha  occ. eigenvalues --   -0.73578  -0.73147  -0.72254  -0.71715  -0.71390
 Alpha  occ. eigenvalues --   -0.70637  -0.70266  -0.69675  -0.69524  -0.68942
 Alpha  occ. eigenvalues --   -0.68864  -0.68019  -0.67404  -0.67135  -0.66173
 Alpha  occ. eigenvalues --   -0.65267  -0.64458  -0.63868  -0.63235  -0.61104
 Alpha  occ. eigenvalues --   -0.60290  -0.59287  -0.58021  -0.57845  -0.57690
 Alpha  occ. eigenvalues --   -0.57380  -0.57208  -0.57197  -0.56798  -0.56675
 Alpha  occ. eigenvalues --   -0.56642  -0.56176  -0.55869  -0.55676  -0.55356
 Alpha  occ. eigenvalues --   -0.55087  -0.54912  -0.54772  -0.54451  -0.54286
 Alpha  occ. eigenvalues --   -0.53948  -0.53716  -0.53416  -0.53106  -0.52873
 Alpha  occ. eigenvalues --   -0.52789  -0.52279  -0.52096  -0.51966  -0.51644
 Alpha  occ. eigenvalues --   -0.51297  -0.51073  -0.50893  -0.50851  -0.50617
 Alpha  occ. eigenvalues --   -0.50322  -0.50079  -0.49787  -0.49557  -0.49389
 Alpha  occ. eigenvalues --   -0.49175  -0.49031  -0.48675  -0.48633  -0.48148
 Alpha  occ. eigenvalues --   -0.47739  -0.46000  -0.44541  -0.44105  -0.41547
 Alpha  occ. eigenvalues --   -0.41070  -0.39778  -0.39221  -0.39044  -0.38048
 Alpha  occ. eigenvalues --   -0.36581  -0.34000
 Alpha virt. eigenvalues --   -0.00068  -0.00021   0.04933   0.05764   0.06508
 Alpha virt. eigenvalues --    0.07557   0.09398   0.12814   0.13676   0.15379
 Alpha virt. eigenvalues --    0.15806   0.16642   0.18269   0.18634   0.19012

 Mulliken charges:
               1
     1  C   -0.079719
     2  O   -0.492749
     3  C    0.209630
     4  N   -0.603911
     5  C    0.838223
     6  O   -0.488083
     7  N   -0.639883
     8  C    0.764405
     9  F   -0.243782
    10  F   -0.269828
    11  C    0.436199
    12  F   -0.272233
    13  O   -0.493126
    14  C    0.975837
    15  F   -0.235913
    16  F   -0.234201
    17  F   -0.239851
    18  C    0.818875
    19  F   -0.258275
    20  F   -0.241702
    21  F   -0.246790
    22  C    0.845208
    23  O   -0.467366
    24  N   -0.648145
    25  C    0.752815
    26  F   -0.244553
    27  F   -0.264599
    28  C    0.435842
    29  F   -0.251133
    30  O   -0.511266
    31  C    0.995308
    32  F   -0.245628
    33  F   -0.237972
    34  F   -0.242406
    35  C    0.816715
    36  F   -0.231942
    37  F   -0.255357
    38  F   -0.253266
    39  C    0.839310
    40  O   -0.489712
    41  H    0.112374
    42  H    0.135786
    43  H    0.112365
    44  H    0.146958
    45  H    0.147542
 Sum of Mulliken charges =   0.00000

 Dipole moment (field-independent basis, Debye):
    X=             -0.0558    Y=              3.2072    Z=             -1.7411  Tot=              3.6497
 Quadrupole moment (field-independent basis, Debye-Ang):
   XX=           -222.6256   YY=           -202.3936   ZZ=           -212.4713
   XY=              2.1850   XZ=             -2.1542   YZ=             -2.0124

 Normal termination of Gaussian 09 at Tue Mar  5 18:14:35 2024.
