 Gaussian 09, Revision D.01,
 Gaussian 09:  ES64L-G09RevD.01 24-Apr-2013

 ----------------------------------------------------------------------
 #p CAM-B3LYP/6-31G(d,p) SCRF=(PCM,Solvent=Generic,Read) NoSymm out=wfn
 ----------------------------------------------------------------------

 -------------------
 Title A897162770_p1
 -------------------
 Symbolic Z-matrix:
 Charge =  1 Multiplicity = 2

                          Input orientation:
 ---------------------------------------------------------------------
 Center     Atomic      Atomic             Coordinates (Angstroms)
 Number     Number       Type             X           Y           Z
 ---------------------------------------------------------------------
      1          6           0       -0.924351    5.163067    2.344588
      2          8           0       -0.524018    4.206259    1.373085
      3          6           0       -0.692574    2.875179    1.853350
      4          7           0       -0.253366    1.987028    0.796684
      5          6           0       -1.187917    1.549060   -0.112089
      6          8           0       -2.391725    1.734967    0.053674
      7          7           0       -0.701015    0.834538   -1.177310
      8          6           0       -1.678202    0.289366   -2.114816
      9          9           0       -1.056134    0.051897   -3.305869
     10          9           0       -2.581267    1.263313   -2.423122
     11          6           0       -2.408465   -0.992984   -1.632058
     12          9           0       -3.193560   -0.685575   -0.557941
     13          8           0       -1.448650   -1.931174   -1.130290
     14          6           0       -1.981305   -3.209723   -0.908275
     15          9           0       -1.112107   -3.895927   -0.143008
     16          9           0       -3.157164   -3.136546   -0.267512
     17          9           0       -2.125169   -3.844795   -2.080706
     18          6           0       -3.285955   -1.432060   -2.812072
     19          9           0       -2.546435   -1.855824   -3.860973
     20          9           0       -4.096949   -0.448963   -3.258688
     21          9           0       -4.096418   -2.462667   -2.468258
     22          6           0        0.552848    0.273621   -1.160152
     23          8           0        0.837504   -0.676864   -1.884061
     24          7           0        1.452011    0.790398   -0.257926
     25          6           0        2.816591    0.264853   -0.263770
     26          9           0        3.682409    1.199206    0.225473
     27          9           0        3.205638    0.167059   -1.578853
     28          6           0        3.092526   -1.111737    0.409392
     29          9           0        4.392452   -1.449249    0.128358
     30          8           0        2.279813   -2.118218   -0.203609
     31          6           0        2.393353   -3.385254    0.385602
     32          9           0        1.942158   -4.306621   -0.484439
     33          9           0        1.618790   -3.417027    1.483814
     34          9           0        3.663102   -3.671262    0.707598
     35          6           0        2.933167   -0.960175    1.923318
     36          9           0        1.634421   -0.744345    2.247099
     37          9           0        3.673849    0.037506    2.441085
     38          9           0        3.305537   -2.085141    2.580215
     39          6           0        1.059585    1.581310    0.792194
     40          8           0        1.823333    1.849597    1.716971
     41          1           0       -0.775430    6.161868    1.925720
     42          1           0       -1.984038    5.041173    2.588834
     43          1           0       -0.315284    5.069198    3.248845
     44          1           0       -1.745994    2.701700    2.099348
     45          1           0       -0.095594    2.729966    2.760553
 ---------------------------------------------------------------------

 SCF Done:  E(UCAM-B3LYP) =  -2909.97916656     A.U. after   20 cycles

 Alpha  occ. eigenvalues --  -24.86131 -24.85704 -24.85604 -24.85458 -24.85381
 Alpha  occ. eigenvalues --  -24.85345 -24.85214 -24.85059 -24.85039 -24.85038
 Alpha  occ. eigenvalues --  -24.85035 -24.84817 -24.84762 -24.84690 -24.84685
 Alpha  occ. eigenvalues --  -24.84599 -24.84510 -24.84332 -19.50752 -19.35047
 Alpha  occ. eigenvalues --  -19.34614 -19.29478 -19.29295 -19.27776 -14.57864
 Alpha  occ. eigenvalues --  -14.57198 -14.56914 -10.61325 -10.60994 -10.57627
 Alpha  occ. eigenvalues --  -10.57166 -10.56352 -10.56230 -10.51258 -10.51253
 Alpha  occ. eigenvalues --  -10.51240 -10.51233 -10.50279 -10.48823 -10.42651
 Alpha  occ. eigenvalues --   -1.44935  -1.44834  -1.43777  -1.43460  -1.41586
 Alpha  occ. eigenvalues --   -1.41360  -1.37848  -1.37118  -1.35454  -1.35359
 Alpha  occ. eigenvalues --   -1.35246  -1.35010  -1.34868  -1.34770  -1.34699
 Alpha  occ. eigenvalues --   -1.34090  -1.33859  -1.33723  -1.33633  -1.28088
 Alpha  occ. eigenvalues --   -1.23138  -1.22832  -1.22404  -1.21943  -1.14692
 Alpha  occ. eigenvalues --   -1.12868  -1.12614  -0.97163  -0.95549  -0.95275
 Alpha  occ. eigenvalues --   -0.88895  -0.88141  -0.87862  -0.84468  -0.84178
 Alpha  occ. eigenvalues --   -0.82744  -0.82193  -0.80238  -0.79470  -0.77922
 Alpha  occ. eigenvalues --   -0.76128  -0.74984  -0.74647  -0.74132  -0.73602
 Alpha  occ. eigenvalues --   -0.73415  -0.72934  -0.72412  -0.72148  -0.71360
 Alpha  occ. eigenvalues --   -0.71265  -0.70904  -0.70354  -0.70197  -0.69808
 Alpha  occ. eigenvalues --   -0.68978  -0.68755  -0.68314  -0.67722  -0.66985
 Alpha  occ. eigenvalues --   -0.66841  -0.65673  -0.63130  -0.61897  -0.61627
 Alpha  occ. eigenvalues --   -0.60898  -0.60681  -0.59888  -0.59454  -0.59138
 Alpha  occ. eigenvalues --   -0.58914  -0.58741  -0.58660  -0.58426  -0.58048
 Alpha  occ. eigenvalues --   -0.57955  -0.57785  -0.57677  -0.57326  -0.57042
 Alpha  occ. eigenvalues --   -0.56833  -0.56774  -0.56295  -0.55928  -0.55789
 Alpha  occ. eigenvalues --   -0.55632  -0.55346  -0.54763  -0.54574  -0.54502
 Alpha  occ. eigenvalues --   -0.54360  -0.54095  -0.53897  -0.53564  -0.53241
 Alpha  occ. eigenvalues --   -0.52979  -0.52737  -0.52492  -0.52384  -0.52266
 Alpha  occ. eigenvalues --   -0.51993  -0.51642  -0.51357  -0.51094  -0.50838
 Alpha  occ. eigenvalues --   -0.50719  -0.50627  -0.48239  -0.47869  -0.46858
 Alpha  occ. eigenvalues --   -0.46457  -0.45296  -0.44506  -0.44029  -0.42723
 Alpha  occ. eigenvalues --   -0.42031  -0.40288
 Alpha virt. eigenvalues --   -0.04282  -0.03789   0.01876   0.03036   0.04075
 Alpha virt. eigenvalues --    0.05017   0.06249   0.07091   0.08912   0.09493
 Alpha virt. eigenvalues --    0.09761   0.11211   0.11496   0.12930   0.13321

  Beta  occ. eigenvalues --  -24.86131 -24.85703 -24.85603 -24.85458 -24.85381
  Beta  occ. eigenvalues --  -24.85345 -24.85214 -24.85059 -24.85039 -24.85038
  Beta  occ. eigenvalues --  -24.85035 -24.84817 -24.84762 -24.84690 -24.84685
  Beta  occ. eigenvalues --  -24.84599 -24.84510 -24.84332 -19.48635 -19.35047
  Beta  occ. eigenvalues --  -19.34614 -19.29427 -19.29244 -19.27772 -14.57871
  Beta  occ. eigenvalues --  -14.57198 -14.56914 -10.61325 -10.60994 -10.57627
  Beta  occ. eigenvalues --  -10.57166 -10.56352 -10.56230 -10.51262 -10.51253
  Beta  occ. eigenvalues --  -10.51243 -10.51233 -10.50279 -10.48825 -10.42655
  Beta  occ. eigenvalues --   -1.44935  -1.44834  -1.43776  -1.43460  -1.41585
  Beta  occ. eigenvalues --   -1.41359  -1.37847  -1.37118  -1.35361  -1.35246
  Beta  occ. eigenvalues --   -1.35010  -1.34868  -1.34770  -1.34699  -1.34090
  Beta  occ. eigenvalues --   -1.33859  -1.33723  -1.33632  -1.31233  -1.27830
  Beta  occ. eigenvalues --   -1.23068  -1.22798  -1.22393  -1.21907  -1.14602
  Beta  occ. eigenvalues --   -1.12748  -1.12587  -0.96920  -0.95548  -0.94905
  Beta  occ. eigenvalues --   -0.88673  -0.88053  -0.86855  -0.84408  -0.84146
  Beta  occ. eigenvalues --   -0.82239  -0.82129  -0.80007  -0.79367  -0.77908
  Beta  occ. eigenvalues --   -0.76045  -0.74931  -0.74632  -0.73945  -0.73186
  Beta  occ. eigenvalues --   -0.72479  -0.72112  -0.71877  -0.71371  -0.71261
  Beta  occ. eigenvalues --   -0.70736  -0.70352  -0.70194  -0.69774  -0.68980
  Beta  occ. eigenvalues --   -0.68722  -0.68312  -0.67846  -0.67075  -0.66888
  Beta  occ. eigenvalues --   -0.66254  -0.65532  -0.62366  -0.61882  -0.61603
  Beta  occ. eigenvalues --   -0.60554  -0.59983  -0.59478  -0.59283  -0.59118
  Beta  occ. eigenvalues --   -0.58903  -0.58648  -0.58593  -0.58174  -0.58035
  Beta  occ. eigenvalues --   -0.57777  -0.57688  -0.57577  -0.57221  -0.57022
  Beta  occ. eigenvalues --   -0.56780  -0.56643  -0.56216  -0.55893  -0.55637
  Beta  occ. eigenvalues --   -0.55298  -0.54826  -0.54707  -0.54483  -0.54399
  Beta  occ. eigenvalues --   -0.54092  -0.53912  -0.53560  -0.53233  -0.52974
  Beta  occ. eigenvalues --   -0.52732  -0.52490  -0.52382  -0.52262  -0.51991
  Beta  occ. eigenvalues --   -0.51641  -0.51355  -0.51096  -0.50836  -0.50718
  Beta  occ. eigenvalues --   -0.50627  -0.48235  -0.47870  -0.46856  -0.46454
  Beta  occ. eigenvalues --   -0.45031  -0.44413  -0.43784  -0.42623  -0.42017
  Beta  occ. eigenvalues --   -0.40180
  Beta virt. eigenvalues --   -0.27796  -0.04255  -0.03682   0.02251   0.03039
  Beta virt. eigenvalues --    0.04106   0.05154   0.06395   0.07155   0.09474
  Beta virt. eigenvalues --    0.09836   0.10342   0.11481   0.11757   0.13099

 Mulliken charges and spin densities:
               1          2
     1  C   -0.175418  -0.017541
     2  O   -0.124171   0.751784
     3  C    0.115169  -0.019886
     4  N   -0.618483   0.001450
     5  C    0.864876  -0.002331
     6  O   -0.471769   0.016974
     7  N   -0.651052   0.000074
     8  C    0.763540  -0.000081
     9  F   -0.246330   0.000049
    10  F   -0.251117   0.000271
    11  C    0.438023  -0.000025
    12  F   -0.256069   0.000037
    13  O   -0.509952   0.000007
    14  C    0.999680   0.000000
    15  F   -0.238094   0.000000
    16  F   -0.241190   0.000000
    17  F   -0.238061   0.000000
    18  C    0.818057  -0.000001
    19  F   -0.242381   0.000000
    20  F   -0.242055   0.000000
    21  F   -0.256257  -0.000001
    22  C    0.870968  -0.000228
    23  O   -0.448082   0.001521
    24  N   -0.648283   0.000120
    25  C    0.744147  -0.000077
    26  F   -0.241873   0.000307
    27  F   -0.256591   0.000044
    28  C    0.442182   0.000002
    29  F   -0.260676  -0.000004
    30  O   -0.502761   0.000008
    31  C    0.998457   0.000002
    32  F   -0.234995   0.000000
    33  F   -0.249383   0.000001
    34  F   -0.239913   0.000001
    35  C    0.817171  -0.000042
    36  F   -0.255602  -0.000003
    37  F   -0.233755   0.000021
    38  F   -0.250278   0.000001
    39  C    0.874601  -0.002457
    40  O   -0.480360   0.017187
    41  H    0.238100  -0.001226
    42  H    0.259446   0.069926
    43  H    0.259711   0.069826
    44  H    0.281052   0.057433
    45  H    0.279769   0.056857
 Sum of Mulliken charges =   1.00000   1.00000

 Dipole moment (field-independent basis, Debye):
    X=             -4.1544    Y=             19.5625    Z=             10.8125  Tot=             22.7345
 Quadrupole moment (field-independent basis, Debye-Ang):
   XX=           -213.0423   YY=           -119.1183   ZZ=           -187.5935
   XY=            -16.7050   XZ=            -11.5101   YZ=             41.9935

 Normal termination of Gaussian 09 at Sun Mar  3 18:02:23 2024.
