 Gaussian 09, Revision D.01,
 Gaussian 09:  ES64L-G09RevD.01 24-Apr-2013

 ----------------------------------------------------------------------
 #p CAM-B3LYP/6-31G(d,p) SCRF=(PCM,Solvent=Generic,Read) NoSymm out=wfn
 ----------------------------------------------------------------------

 ------------------
 Title A897162771_0
 ------------------
 Symbolic Z-matrix:
 Charge =  0 Multiplicity = 1

                          Input orientation:
 ---------------------------------------------------------------------
 Center     Atomic      Atomic             Coordinates (Angstroms)
 Number     Number       Type             X           Y           Z
 ---------------------------------------------------------------------
      1          6           0        0.540503    5.117505   -0.592485
      2          8           0        0.388686    3.716127   -0.414809
      3          6           0        0.297467    3.372895    0.964775
      4          7           0        0.145516    1.935254    1.037366
      5          6           0        1.288376    1.167305    1.052034
      6          8           0        2.408893    1.668586    1.120208
      7          7           0        1.100210   -0.192575    0.976389
      8          6           0        2.287482   -1.028845    0.849808
      9          9           0        3.179762   -0.623196    1.811187
     10          9           0        1.994430   -2.299860    1.235675
     11          6           0        3.025082   -1.021247   -0.522068
     12          9           0        2.998687    0.265127   -1.017986
     13          8           0        4.436087   -1.279723   -0.431392
     14          6           0        4.774257   -2.619773   -0.188963
     15          9           0        4.498382   -3.362857   -1.270563
     16          9           0        4.109040   -3.092702    0.871248
     17          9           0        6.094063   -2.692202    0.059921
     18          6           0        2.255159   -1.875396   -1.527884
     19          9           0        2.068111   -3.141813   -1.109834
     20          9           0        2.916740   -1.937499   -2.710409
     21          9           0        1.042657   -1.338800   -1.800969
     22          6           0       -0.129863   -0.750092    0.746905
     23          8           0       -0.247492   -1.901488    0.339791
     24          7           0       -1.224128    0.048487    0.956914
     25          6           0       -2.539600   -0.569174    0.845073
     26          9           0       -2.492175   -1.696362    1.623609
     27          9           0       -3.475353    0.191130    1.487231
     28          6           0       -3.096932   -0.958695   -0.559564
     29          9           0       -2.297190   -1.876587   -1.175406
     30          8           0       -4.424843   -1.512251   -0.579311
     31          6           0       -4.580761   -2.635133    0.246330
     32          9           0       -5.653190   -3.329714   -0.179357
     33          9           0       -4.812324   -2.226984    1.505544
     34          9           0       -3.505743   -3.435608    0.208596
     35          6           0       -3.120361    0.288412   -1.434604
     36          9           0       -3.580864    0.002296   -2.679702
     37          9           0       -3.921736    1.253917   -0.939789
     38          9           0       -1.881470    0.809389   -1.597914
     39          6           0       -1.126858    1.416547    0.966370
     40          8           0       -2.119944    2.135563    0.883944
     41          1           0       -0.323671    5.651393   -0.185525
     42          1           0        1.460097    5.467312   -0.113497
     43          1           0        0.605045    5.323692   -1.664186
     44          1           0       -0.565048    3.874838    1.417835
     45          1           0        1.204816    3.692801    1.489469
 ---------------------------------------------------------------------

 SCF Done:  E(RCAM-B3LYP) =  -2910.28433593     A.U. after   13 cycles

 Alpha  occ. eigenvalues --  -24.84300 -24.84089 -24.83758 -24.83744 -24.83651
 Alpha  occ. eigenvalues --  -24.83444 -24.83389 -24.83338 -24.83262 -24.83237
 Alpha  occ. eigenvalues --  -24.83168 -24.83010 -24.82894 -24.82779 -24.82767
 Alpha  occ. eigenvalues --  -24.82749 -24.82565 -24.82209 -19.33315 -19.32970
 Alpha  occ. eigenvalues --  -19.24899 -19.24363 -19.24241 -19.24023 -14.53714
 Alpha  occ. eigenvalues --  -14.53687 -14.51361 -10.59795 -10.59339 -10.55458
 Alpha  occ. eigenvalues --  -10.55415 -10.53988 -10.53607 -10.49310 -10.49150
 Alpha  occ. eigenvalues --  -10.47311 -10.46377 -10.46365 -10.36869 -10.30801
 Alpha  occ. eigenvalues --   -1.43615  -1.42877  -1.41964  -1.41913  -1.39180
 Alpha  occ. eigenvalues --   -1.39045  -1.35619  -1.35588  -1.34129  -1.33573
 Alpha  occ. eigenvalues --   -1.33275  -1.33195  -1.32887  -1.32835  -1.32317
 Alpha  occ. eigenvalues --   -1.32129  -1.31678  -1.31432  -1.24012  -1.20675
 Alpha  occ. eigenvalues --   -1.20347  -1.18781  -1.18367  -1.13498  -1.10566
 Alpha  occ. eigenvalues --   -1.09119  -1.06684  -0.93978  -0.93157  -0.87023
 Alpha  occ. eigenvalues --   -0.84703  -0.84608  -0.82547  -0.80795  -0.80039
 Alpha  occ. eigenvalues --   -0.79380  -0.77154  -0.76062  -0.75420  -0.74648
 Alpha  occ. eigenvalues --   -0.73484  -0.72907  -0.72175  -0.71693  -0.71299
 Alpha  occ. eigenvalues --   -0.70520  -0.70271  -0.69574  -0.69258  -0.68886
 Alpha  occ. eigenvalues --   -0.68419  -0.67848  -0.67781  -0.67412  -0.65902
 Alpha  occ. eigenvalues --   -0.65276  -0.64578  -0.64142  -0.63196  -0.60697
 Alpha  occ. eigenvalues --   -0.60035  -0.59036  -0.58208  -0.57750  -0.57665
 Alpha  occ. eigenvalues --   -0.57398  -0.57231  -0.56924  -0.56774  -0.56587
 Alpha  occ. eigenvalues --   -0.56372  -0.56260  -0.55742  -0.55395  -0.55119
 Alpha  occ. eigenvalues --   -0.54983  -0.54763  -0.54587  -0.54449  -0.54248
 Alpha  occ. eigenvalues --   -0.53827  -0.53565  -0.53376  -0.53208  -0.52749
 Alpha  occ. eigenvalues --   -0.52482  -0.52270  -0.52002  -0.51686  -0.51639
 Alpha  occ. eigenvalues --   -0.51499  -0.51048  -0.50933  -0.50745  -0.50522
 Alpha  occ. eigenvalues --   -0.50264  -0.49950  -0.49729  -0.49622  -0.49308
 Alpha  occ. eigenvalues --   -0.49085  -0.48988  -0.48776  -0.48460  -0.47929
 Alpha  occ. eigenvalues --   -0.47676  -0.45785  -0.44809  -0.44122  -0.41081
 Alpha  occ. eigenvalues --   -0.40873  -0.40218  -0.39151  -0.38907  -0.37869
 Alpha  occ. eigenvalues --   -0.36456  -0.33757
 Alpha virt. eigenvalues --   -0.00092   0.00192   0.04928   0.05628   0.06711
 Alpha virt. eigenvalues --    0.07606   0.09639   0.12964   0.14469   0.15489
 Alpha virt. eigenvalues --    0.15863   0.17498   0.18384   0.18604   0.19411

 Mulliken charges:
               1
     1  C   -0.082393
     2  O   -0.498891
     3  C    0.211940
     4  N   -0.610849
     5  C    0.862694
     6  O   -0.495824
     7  N   -0.640813
     8  C    0.757761
     9  F   -0.267485
    10  F   -0.246375
    11  C    0.437277
    12  F   -0.268853
    13  O   -0.495530
    14  C    0.977197
    15  F   -0.239448
    16  F   -0.233456
    17  F   -0.237413
    18  C    0.820800
    19  F   -0.243327
    20  F   -0.257499
    21  F   -0.246369
    22  C    0.845370
    23  O   -0.478595
    24  N   -0.646811
    25  C    0.763341
    26  F   -0.268507
    27  F   -0.245356
    28  C    0.437627
    29  F   -0.251975
    30  O   -0.515644
    31  C    0.999858
    32  F   -0.241116
    33  F   -0.245529
    34  F   -0.240436
    35  C    0.807668
    36  F   -0.252307
    37  F   -0.234908
    38  F   -0.250730
    39  C    0.845755
    40  O   -0.496341
    41  H    0.115577
    42  H    0.115446
    43  H    0.136541
    44  H    0.148366
    45  H    0.149562
 Sum of Mulliken charges =   0.00000

 Dipole moment (field-independent basis, Debye):
    X=              0.6207    Y=              3.1678    Z=              1.5784  Tot=              3.5933
 Quadrupole moment (field-independent basis, Debye-Ang):
   XX=           -227.5782   YY=           -199.0260   ZZ=           -209.4439
   XY=              0.5710   XZ=             -1.0929   YZ=              2.0800

 Normal termination of Gaussian 09 at Sun Mar  3 18:01:33 2024.
