 Gaussian 09, Revision D.01,
 Gaussian 09:  ES64L-G09RevD.01 24-Apr-2013

 ----------------------------------------------------------------------
 #p CAM-B3LYP/6-31G(d,p) SCRF=(PCM,Solvent=Generic,Read) NoSymm out=wfn
 ----------------------------------------------------------------------

 -------------------
 Title A897162771_p1
 -------------------
 Symbolic Z-matrix:
 Charge =  1 Multiplicity = 2

                          Input orientation:
 ---------------------------------------------------------------------
 Center     Atomic      Atomic             Coordinates (Angstroms)
 Number     Number       Type             X           Y           Z
 ---------------------------------------------------------------------
      1          6           0        0.540503    5.117505   -0.592485
      2          8           0        0.388686    3.716127   -0.414809
      3          6           0        0.297467    3.372895    0.964775
      4          7           0        0.145516    1.935254    1.037366
      5          6           0        1.288376    1.167305    1.052034
      6          8           0        2.408893    1.668586    1.120208
      7          7           0        1.100210   -0.192575    0.976389
      8          6           0        2.287482   -1.028845    0.849808
      9          9           0        3.179762   -0.623196    1.811187
     10          9           0        1.994430   -2.299860    1.235675
     11          6           0        3.025082   -1.021247   -0.522068
     12          9           0        2.998687    0.265127   -1.017986
     13          8           0        4.436087   -1.279723   -0.431392
     14          6           0        4.774257   -2.619773   -0.188963
     15          9           0        4.498382   -3.362857   -1.270563
     16          9           0        4.109040   -3.092702    0.871248
     17          9           0        6.094063   -2.692202    0.059921
     18          6           0        2.255159   -1.875396   -1.527884
     19          9           0        2.068111   -3.141813   -1.109834
     20          9           0        2.916740   -1.937499   -2.710409
     21          9           0        1.042657   -1.338800   -1.800969
     22          6           0       -0.129863   -0.750092    0.746905
     23          8           0       -0.247492   -1.901488    0.339791
     24          7           0       -1.224128    0.048487    0.956914
     25          6           0       -2.539600   -0.569174    0.845073
     26          9           0       -2.492175   -1.696362    1.623609
     27          9           0       -3.475353    0.191130    1.487231
     28          6           0       -3.096932   -0.958695   -0.559564
     29          9           0       -2.297190   -1.876587   -1.175406
     30          8           0       -4.424843   -1.512251   -0.579311
     31          6           0       -4.580761   -2.635133    0.246330
     32          9           0       -5.653190   -3.329714   -0.179357
     33          9           0       -4.812324   -2.226984    1.505544
     34          9           0       -3.505743   -3.435608    0.208596
     35          6           0       -3.120361    0.288412   -1.434604
     36          9           0       -3.580864    0.002296   -2.679702
     37          9           0       -3.921736    1.253917   -0.939789
     38          9           0       -1.881470    0.809389   -1.597914
     39          6           0       -1.126858    1.416547    0.966370
     40          8           0       -2.119944    2.135563    0.883944
     41          1           0       -0.323671    5.651393   -0.185525
     42          1           0        1.460097    5.467312   -0.113497
     43          1           0        0.605045    5.323692   -1.664186
     44          1           0       -0.565048    3.874838    1.417835
     45          1           0        1.204816    3.692801    1.489469
 ---------------------------------------------------------------------

 SCF Done:  E(UCAM-B3LYP) =  -2909.97566507     A.U. after   23 cycles

 Alpha  occ. eigenvalues --  -24.86908 -24.85780 -24.85756 -24.85686 -24.85564
 Alpha  occ. eigenvalues --  -24.85437 -24.85305 -24.85138 -24.85118 -24.85009
 Alpha  occ. eigenvalues --  -24.84846 -24.84831 -24.84741 -24.84728 -24.84631
 Alpha  occ. eigenvalues --  -24.84511 -24.84502 -24.84307 -19.51151 -19.35155
 Alpha  occ. eigenvalues --  -19.34698 -19.29387 -19.29260 -19.27994 -14.57959
 Alpha  occ. eigenvalues --  -14.57300 -14.57282 -10.61302 -10.60779 -10.57643
 Alpha  occ. eigenvalues --  -10.57352 -10.56519 -10.56172 -10.51514 -10.51315
 Alpha  occ. eigenvalues --  -10.51310 -10.51261 -10.50442 -10.48927 -10.42837
 Alpha  occ. eigenvalues --   -1.45113  -1.44540  -1.44047  -1.43718  -1.41492
 Alpha  occ. eigenvalues --   -1.41365  -1.37949  -1.37554  -1.35803  -1.35689
 Alpha  occ. eigenvalues --   -1.35604  -1.35148  -1.34645  -1.34566  -1.34384
 Alpha  occ. eigenvalues --   -1.34163  -1.34122  -1.33802  -1.33712  -1.28175
 Alpha  occ. eigenvalues --   -1.23082  -1.22631  -1.22476  -1.22045  -1.14792
 Alpha  occ. eigenvalues --   -1.13061  -1.12874  -0.97245  -0.95549  -0.95209
 Alpha  occ. eigenvalues --   -0.89329  -0.88387  -0.88145  -0.84327  -0.83667
 Alpha  occ. eigenvalues --   -0.83053  -0.82585  -0.80493  -0.79829  -0.77930
 Alpha  occ. eigenvalues --   -0.76428  -0.75380  -0.74656  -0.74193  -0.73658
 Alpha  occ. eigenvalues --   -0.73312  -0.73261  -0.72640  -0.72445  -0.71770
 Alpha  occ. eigenvalues --   -0.70987  -0.70780  -0.70607  -0.70346  -0.69915
 Alpha  occ. eigenvalues --   -0.69723  -0.69676  -0.68065  -0.67532  -0.66746
 Alpha  occ. eigenvalues --   -0.66371  -0.65976  -0.63126  -0.61863  -0.61151
 Alpha  occ. eigenvalues --   -0.60881  -0.60806  -0.59980  -0.59516  -0.59301
 Alpha  occ. eigenvalues --   -0.59120  -0.59082  -0.58850  -0.58814  -0.58395
 Alpha  occ. eigenvalues --   -0.58028  -0.57854  -0.57566  -0.57086  -0.56938
 Alpha  occ. eigenvalues --   -0.56679  -0.56555  -0.56497  -0.56112  -0.55879
 Alpha  occ. eigenvalues --   -0.55597  -0.55424  -0.55168  -0.54854  -0.54466
 Alpha  occ. eigenvalues --   -0.54390  -0.54069  -0.53936  -0.53679  -0.53501
 Alpha  occ. eigenvalues --   -0.53002  -0.52759  -0.52579  -0.52534  -0.52440
 Alpha  occ. eigenvalues --   -0.51825  -0.51746  -0.51585  -0.51009  -0.50837
 Alpha  occ. eigenvalues --   -0.50677  -0.50378  -0.49958  -0.47721  -0.47060
 Alpha  occ. eigenvalues --   -0.46279  -0.45176  -0.44233  -0.43956  -0.42840
 Alpha  occ. eigenvalues --   -0.42319  -0.40452
 Alpha virt. eigenvalues --   -0.04478  -0.03891   0.01289   0.03012   0.03521
 Alpha virt. eigenvalues --    0.04277   0.05327   0.07346   0.08400   0.09167
 Alpha virt. eigenvalues --    0.09762   0.10945   0.12108   0.13057   0.13581

  Beta  occ. eigenvalues --  -24.86908 -24.85780 -24.85756 -24.85686 -24.85564
  Beta  occ. eigenvalues --  -24.85437 -24.85305 -24.85138 -24.85118 -24.85009
  Beta  occ. eigenvalues --  -24.84846 -24.84831 -24.84741 -24.84728 -24.84631
  Beta  occ. eigenvalues --  -24.84511 -24.84502 -24.84307 -19.49005 -19.35155
  Beta  occ. eigenvalues --  -19.34698 -19.29355 -19.29230 -19.27994 -14.57967
  Beta  occ. eigenvalues --  -14.57299 -14.57281 -10.61302 -10.60779 -10.57643
  Beta  occ. eigenvalues --  -10.57352 -10.56519 -10.56172 -10.51514 -10.51317
  Beta  occ. eigenvalues --  -10.51312 -10.51261 -10.50442 -10.48936 -10.42839
  Beta  occ. eigenvalues --   -1.45113  -1.44540  -1.44047  -1.43718  -1.41491
  Beta  occ. eigenvalues --   -1.41365  -1.37948  -1.37554  -1.35693  -1.35604
  Beta  occ. eigenvalues --   -1.35149  -1.34645  -1.34566  -1.34385  -1.34163
  Beta  occ. eigenvalues --   -1.34122  -1.33802  -1.33712  -1.31503  -1.27935
  Beta  occ. eigenvalues --   -1.23039  -1.22561  -1.22472  -1.22044  -1.14735
  Beta  occ. eigenvalues --   -1.12940  -1.12852  -0.96977  -0.95482  -0.94925
  Beta  occ. eigenvalues --   -0.89145  -0.88351  -0.87036  -0.84320  -0.83439
  Beta  occ. eigenvalues --   -0.82735  -0.82555  -0.80271  -0.79644  -0.77907
  Beta  occ. eigenvalues --   -0.76353  -0.75339  -0.74553  -0.73821  -0.73323
  Beta  occ. eigenvalues --   -0.72545  -0.72474  -0.72004  -0.71753  -0.70978
  Beta  occ. eigenvalues --   -0.70632  -0.70621  -0.70437  -0.69973  -0.69728
  Beta  occ. eigenvalues --   -0.69570  -0.68057  -0.67522  -0.66913  -0.66627
  Beta  occ. eigenvalues --   -0.66149  -0.65843  -0.62390  -0.61843  -0.61064
  Beta  occ. eigenvalues --   -0.60683  -0.60019  -0.59566  -0.59399  -0.59221
  Beta  occ. eigenvalues --   -0.59072  -0.59039  -0.58820  -0.58670  -0.58277
  Beta  occ. eigenvalues --   -0.57936  -0.57565  -0.57456  -0.56938  -0.56869
  Beta  occ. eigenvalues --   -0.56650  -0.56537  -0.56454  -0.56008  -0.55608
  Beta  occ. eigenvalues --   -0.55423  -0.55155  -0.54908  -0.54520  -0.54385
  Beta  occ. eigenvalues --   -0.54077  -0.53933  -0.53680  -0.53500  -0.53003
  Beta  occ. eigenvalues --   -0.52758  -0.52575  -0.52534  -0.52444  -0.51821
  Beta  occ. eigenvalues --   -0.51745  -0.51583  -0.51009  -0.50837  -0.50677
  Beta  occ. eigenvalues --   -0.50379  -0.49955  -0.47719  -0.47053  -0.46270
  Beta  occ. eigenvalues --   -0.44979  -0.44204  -0.43894  -0.42764  -0.42269
  Beta  occ. eigenvalues --   -0.40406
  Beta virt. eigenvalues --   -0.27914  -0.04450  -0.03787   0.01550   0.03026
  Beta virt. eigenvalues --    0.03770   0.04310   0.05344   0.07479   0.08959
  Beta virt. eigenvalues --    0.09584   0.10419   0.11288   0.12304   0.13103

 Mulliken charges and spin densities:
               1          2
     1  C   -0.175832  -0.016488
     2  O   -0.120603   0.761902
     3  C    0.114291  -0.022432
     4  N   -0.624257   0.000729
     5  C    0.884769  -0.001597
     6  O   -0.478061   0.010723
     7  N   -0.642771   0.000375
     8  C    0.760046  -0.000041
     9  F   -0.263008   0.000090
    10  F   -0.239291   0.000006
    11  C    0.438130   0.000045
    12  F   -0.273698   0.000112
    13  O   -0.493107   0.000016
    14  C    0.979929  -0.000002
    15  F   -0.237256   0.000000
    16  F   -0.232557   0.000000
    17  F   -0.234819   0.000000
    18  C    0.822790   0.000001
    19  F   -0.239532   0.000000
    20  F   -0.254103   0.000000
    21  F   -0.248531   0.000006
    22  C    0.854564   0.000018
    23  O   -0.456866  -0.000298
    24  N   -0.648461   0.000499
    25  C    0.764217  -0.000022
    26  F   -0.261691  -0.000003
    27  F   -0.241552   0.000057
    28  C    0.441214   0.000038
    29  F   -0.248596   0.000000
    30  O   -0.511399   0.000022
    31  C    1.002311  -0.000002
    32  F   -0.238156   0.000001
    33  F   -0.244683   0.000000
    34  F   -0.239388   0.000000
    35  C    0.807330   0.000000
    36  F   -0.247243   0.000002
    37  F   -0.234175   0.000056
    38  F   -0.257580  -0.000003
    39  C    0.867635  -0.001772
    40  O   -0.480127   0.010226
    41  H    0.262490   0.071698
    42  H    0.262549   0.071898
    43  H    0.239798  -0.001302
    44  H    0.282267   0.057639
    45  H    0.283015   0.057798
 Sum of Mulliken charges =   1.00000   1.00000

 Dipole moment (field-independent basis, Debye):
    X=              2.3669    Y=             20.8490    Z=              1.8821  Tot=             21.0672
 Quadrupole moment (field-independent basis, Debye-Ang):
   XX=           -217.0509   YY=           -112.1945   ZZ=           -202.6243
   XY=              8.4727   XZ=             -1.1525   YZ=              0.6978

 Normal termination of Gaussian 09 at Sun Mar  3 18:02:38 2024.
