 Gaussian 09, Revision D.01,
 Gaussian 09:  ES64L-G09RevD.01 24-Apr-2013

 ----------------------------------------------------------------------
 #p CAM-B3LYP/6-31G(d,p) SCRF=(PCM,Solvent=Generic,Read) NoSymm out=wfn
 ----------------------------------------------------------------------

 ------------------
 Title A126125641_0
 ------------------
 Symbolic Z-matrix:
 Charge =  0 Multiplicity = 1

                          Input orientation:
 ---------------------------------------------------------------------
 Center     Atomic      Atomic             Coordinates (Angstroms)
 Number     Number       Type             X           Y           Z
 ---------------------------------------------------------------------
      1          6           0        0.464003    3.645886   -1.103879
      2          6           0       -0.088207    3.664806    0.313802
      3          6           0        0.605409    2.664293    1.244671
      4          7           0        0.363057    1.271462    0.857384
      5          6           0       -0.846387    0.698783    1.202290
      6          8           0       -1.637516    1.268384    1.947021
      7          7           0       -1.070127   -0.556575    0.708237
      8          6           0       -2.329658   -1.207002    1.045322
      9          9           0       -2.380784   -1.394488    2.393385
     10          9           0       -2.326216   -2.463077    0.504488
     11          6           0       -3.661521   -0.548699    0.558808
     12          9           0       -3.754711    0.742684    1.004965
     13          8           0       -4.882625   -1.113584    1.058860
     14          6           0       -5.004300   -2.506048    0.949236
     15          9           0       -4.701621   -2.908943   -0.290501
     16          9           0       -6.280470   -2.843403    1.209986
     17          9           0       -4.208163   -3.108087    1.843347
     18          6           0       -3.577063   -0.467680   -0.970025
     19          9           0       -4.729029   -0.004413   -1.508582
     20          9           0       -2.593023    0.390201   -1.350765
     21          9           0       -3.295914   -1.639309   -1.572102
     22          6           0        0.040030   -1.353998    0.569721
     23          8           0        0.083673   -2.505780    0.988792
     24          7           0        1.116192   -0.745829   -0.046311
     25          6           0        2.194625   -1.631227   -0.470830
     26          9           0        2.820243   -2.097990    0.647989
     27          9           0        1.603756   -2.739821   -1.026055
     28          6           0        3.283397   -1.195977   -1.503906
     29          9           0        3.999217   -2.318197   -1.863290
     30          8           0        4.280337   -0.242719   -1.141052
     31          6           0        4.997598   -0.592462    0.014990
     32          9           0        4.271477   -0.312697    1.112123
     33          9           0        5.329660   -1.893762    0.018103
     34          9           0        6.128200    0.138970    0.054689
     35          6           0        2.538730   -0.744976   -2.761586
     36          9           0        1.748233   -1.721113   -3.266545
     37          9           0        1.729919    0.318337   -2.543762
     38          9           0        3.395806   -0.388047   -3.749286
     39          6           0        1.362739    0.571870    0.215431
     40          8           0        2.424528    1.102181   -0.095016
     41          1           0       -0.012381    4.428345   -1.703164
     42          1           0        0.270580    2.687240   -1.594747
     43          1           0        1.543512    3.826517   -1.107969
     44          1           0       -1.166405    3.470692    0.280067
     45          1           0        0.042120    4.672243    0.726226
     46          1           0        1.680877    2.871616    1.277866
     47          1           0        0.228202    2.811395    2.263925
 ---------------------------------------------------------------------

 SCF Done:  E(RCAM-B3LYP) =  -2874.37833900     A.U. after   13 cycles

 Alpha  occ. eigenvalues --  -24.84023 -24.83805 -24.83732 -24.83589 -24.83558
 Alpha  occ. eigenvalues --  -24.83485 -24.83448 -24.83346 -24.83220 -24.83168
 Alpha  occ. eigenvalues --  -24.83151 -24.83080 -24.82964 -24.82857 -24.82716
 Alpha  occ. eigenvalues --  -24.82708 -24.82644 -24.82641 -19.33435 -19.32354
 Alpha  occ. eigenvalues --  -19.26039 -19.24426 -19.24040 -14.53194 -14.53013
 Alpha  occ. eigenvalues --  -14.50685 -10.59724 -10.59178 -10.55557 -10.55447
 Alpha  occ. eigenvalues --  -10.53861 -10.53735 -10.49531 -10.49473 -10.47434
 Alpha  occ. eigenvalues --  -10.45936 -10.45883 -10.31553 -10.26716 -10.25025
 Alpha  occ. eigenvalues --   -1.43542  -1.42644  -1.42100  -1.41966  -1.39345
 Alpha  occ. eigenvalues --   -1.39128  -1.35590  -1.35112  -1.34177  -1.33309
 Alpha  occ. eigenvalues --   -1.33004  -1.32864  -1.32766  -1.32701  -1.32680
 Alpha  occ. eigenvalues --   -1.32430  -1.32161  -1.31715  -1.23983  -1.20725
 Alpha  occ. eigenvalues --   -1.20137  -1.18543  -1.18438  -1.10805  -1.08830
 Alpha  occ. eigenvalues --   -1.06909  -0.94068  -0.93333  -0.88947  -0.85815
 Alpha  occ. eigenvalues --   -0.84416  -0.82311  -0.81910  -0.80839  -0.80423
 Alpha  occ. eigenvalues --   -0.78370  -0.76355  -0.75300  -0.74826  -0.73959
 Alpha  occ. eigenvalues --   -0.73442  -0.71985  -0.71122  -0.70660  -0.70456
 Alpha  occ. eigenvalues --   -0.70023  -0.69754  -0.69288  -0.69175  -0.68365
 Alpha  occ. eigenvalues --   -0.68204  -0.67673  -0.67357  -0.66514  -0.66389
 Alpha  occ. eigenvalues --   -0.66093  -0.65050  -0.64141  -0.62861  -0.60075
 Alpha  occ. eigenvalues --   -0.59369  -0.58981  -0.57919  -0.57574  -0.57486
 Alpha  occ. eigenvalues --   -0.57039  -0.56734  -0.56646  -0.56483  -0.56254
 Alpha  occ. eigenvalues --   -0.56002  -0.55948  -0.55854  -0.55320  -0.54919
 Alpha  occ. eigenvalues --   -0.54823  -0.54788  -0.54484  -0.54174  -0.53726
 Alpha  occ. eigenvalues --   -0.53655  -0.53334  -0.52936  -0.52638  -0.52187
 Alpha  occ. eigenvalues --   -0.52126  -0.51921  -0.51664  -0.51509  -0.51445
 Alpha  occ. eigenvalues --   -0.51180  -0.50988  -0.50597  -0.50402  -0.50253
 Alpha  occ. eigenvalues --   -0.50190  -0.49846  -0.49753  -0.49472  -0.49387
 Alpha  occ. eigenvalues --   -0.48825  -0.48634  -0.48509  -0.48010  -0.47328
 Alpha  occ. eigenvalues --   -0.45982  -0.44104  -0.43604  -0.43039  -0.41824
 Alpha  occ. eigenvalues --   -0.41716  -0.41063  -0.40033  -0.39308  -0.38309
 Alpha  occ. eigenvalues --   -0.36620  -0.36139
 Alpha virt. eigenvalues --   -0.01462   0.00391   0.04694   0.05893   0.06747
 Alpha virt. eigenvalues --    0.08846   0.10543   0.12921   0.14301   0.15719
 Alpha virt. eigenvalues --    0.15895   0.16637   0.17387   0.18065   0.18427

 Mulliken charges:
               1
     1  C   -0.320823
     2  C   -0.190016
     3  C   -0.068869
     4  N   -0.587378
     5  C    0.818318
     6  O   -0.485562
     7  N   -0.620444
     8  C    0.770227
     9  F   -0.259655
    10  F   -0.268099
    11  C    0.427180
    12  F   -0.251445
    13  O   -0.500581
    14  C    0.986167
    15  F   -0.239978
    16  F   -0.239265
    17  F   -0.238650
    18  C    0.795706
    19  F   -0.246333
    20  F   -0.252484
    21  F   -0.235196
    22  C    0.796664
    23  O   -0.439688
    24  N   -0.617556
    25  C    0.769989
    26  F   -0.261020
    27  F   -0.272287
    28  C    0.416115
    29  F   -0.274308
    30  O   -0.488941
    31  C    0.999632
    32  F   -0.245458
    33  F   -0.246012
    34  F   -0.241707
    35  C    0.807118
    36  F   -0.243773
    37  F   -0.239958
    38  F   -0.248511
    39  C    0.858742
    40  O   -0.514217
    41  H    0.114005
    42  H    0.102143
    43  H    0.118270
    44  H    0.120700
    45  H    0.122220
    46  H    0.160503
    47  H    0.154513
 Sum of Mulliken charges =   0.00000

 Dipole moment (field-independent basis, Debye):
    X=             -0.2874    Y=              2.9333    Z=             -0.2921  Tot=              2.9617
 Quadrupole moment (field-independent basis, Debye-Ang):
   XX=           -224.4521   YY=           -213.9622   ZZ=           -217.4055
   XY=              3.6599   XZ=              7.3291   YZ=              3.1655

 Normal termination of Gaussian 09 at Sun Mar  3 17:23:48 2024.
