 Gaussian 09, Revision D.01,
 Gaussian 09:  ES64L-G09RevD.01 24-Apr-2013

 ----------------------------------------------------------------------
 #p CAM-B3LYP/6-31G(d,p) SCRF=(PCM,Solvent=Generic,Read) NoSymm out=wfn
 ----------------------------------------------------------------------

 -------------------
 Title A126125641_p1
 -------------------
 Symbolic Z-matrix:
 Charge =  1 Multiplicity = 2

                          Input orientation:
 ---------------------------------------------------------------------
 Center     Atomic      Atomic             Coordinates (Angstroms)
 Number     Number       Type             X           Y           Z
 ---------------------------------------------------------------------
      1          6           0        0.464003    3.645886   -1.103879
      2          6           0       -0.088207    3.664806    0.313802
      3          6           0        0.605409    2.664293    1.244671
      4          7           0        0.363057    1.271462    0.857384
      5          6           0       -0.846387    0.698783    1.202290
      6          8           0       -1.637516    1.268384    1.947021
      7          7           0       -1.070127   -0.556575    0.708237
      8          6           0       -2.329658   -1.207002    1.045322
      9          9           0       -2.380784   -1.394488    2.393385
     10          9           0       -2.326216   -2.463077    0.504488
     11          6           0       -3.661521   -0.548699    0.558808
     12          9           0       -3.754711    0.742684    1.004965
     13          8           0       -4.882625   -1.113584    1.058860
     14          6           0       -5.004300   -2.506048    0.949236
     15          9           0       -4.701621   -2.908943   -0.290501
     16          9           0       -6.280470   -2.843403    1.209986
     17          9           0       -4.208163   -3.108087    1.843347
     18          6           0       -3.577063   -0.467680   -0.970025
     19          9           0       -4.729029   -0.004413   -1.508582
     20          9           0       -2.593023    0.390201   -1.350765
     21          9           0       -3.295914   -1.639309   -1.572102
     22          6           0        0.040030   -1.353998    0.569721
     23          8           0        0.083673   -2.505780    0.988792
     24          7           0        1.116192   -0.745829   -0.046311
     25          6           0        2.194625   -1.631227   -0.470830
     26          9           0        2.820243   -2.097990    0.647989
     27          9           0        1.603756   -2.739821   -1.026055
     28          6           0        3.283397   -1.195977   -1.503906
     29          9           0        3.999217   -2.318197   -1.863290
     30          8           0        4.280337   -0.242719   -1.141052
     31          6           0        4.997598   -0.592462    0.014990
     32          9           0        4.271477   -0.312697    1.112123
     33          9           0        5.329660   -1.893762    0.018103
     34          9           0        6.128200    0.138970    0.054689
     35          6           0        2.538730   -0.744976   -2.761586
     36          9           0        1.748233   -1.721113   -3.266545
     37          9           0        1.729919    0.318337   -2.543762
     38          9           0        3.395806   -0.388047   -3.749286
     39          6           0        1.362739    0.571870    0.215431
     40          8           0        2.424528    1.102181   -0.095016
     41          1           0       -0.012381    4.428345   -1.703164
     42          1           0        0.270580    2.687240   -1.594747
     43          1           0        1.543512    3.826517   -1.107969
     44          1           0       -1.166405    3.470692    0.280067
     45          1           0        0.042120    4.672243    0.726226
     46          1           0        1.680877    2.871616    1.277866
     47          1           0        0.228202    2.811395    2.263925
 ---------------------------------------------------------------------

 SCF Done:  E(UCAM-B3LYP) =  -2874.03529758     A.U. after   86 cycles

 Alpha  occ. eigenvalues --  -24.88444 -24.88201 -24.87982 -24.87606 -24.87302
 Alpha  occ. eigenvalues --  -24.86956 -24.86943 -24.86848 -24.86764 -24.86687
 Alpha  occ. eigenvalues --  -24.86608 -24.86326 -24.86285 -24.85980 -24.85837
 Alpha  occ. eigenvalues --  -24.85532 -24.85494 -24.85283 -19.45089 -19.38721
 Alpha  occ. eigenvalues --  -19.35982 -19.34514 -19.34163 -14.62573 -14.61146
 Alpha  occ. eigenvalues --  -14.60034 -10.63464 -10.61763 -10.59779 -10.59627
 Alpha  occ. eigenvalues --  -10.58223 -10.58124 -10.58121 -10.54774 -10.54532
 Alpha  occ. eigenvalues --  -10.54255 -10.52801 -10.38337 -10.31344 -10.28923
 Alpha  occ. eigenvalues --   -1.46763  -1.45907  -1.45726  -1.44581  -1.44250
 Alpha  occ. eigenvalues --   -1.43259  -1.39425  -1.38922  -1.37470  -1.37075
 Alpha  occ. eigenvalues --   -1.36884  -1.36491  -1.36397  -1.36162  -1.36082
 Alpha  occ. eigenvalues --   -1.35712  -1.35426  -1.35079  -1.34917  -1.30491
 Alpha  occ. eigenvalues --   -1.26905  -1.25822  -1.23253  -1.20861  -1.17086
 Alpha  occ. eigenvalues --   -1.16181  -0.99413  -0.97340  -0.95228  -0.91890
 Alpha  occ. eigenvalues --   -0.91588  -0.88817  -0.86414  -0.85070  -0.84730
 Alpha  occ. eigenvalues --   -0.84476  -0.83311  -0.81338  -0.79160  -0.77860
 Alpha  occ. eigenvalues --   -0.76710  -0.76333  -0.75565  -0.75009  -0.74450
 Alpha  occ. eigenvalues --   -0.73770  -0.73484  -0.73232  -0.72883  -0.72338
 Alpha  occ. eigenvalues --   -0.72113  -0.71672  -0.71583  -0.71377  -0.71000
 Alpha  occ. eigenvalues --   -0.70811  -0.70365  -0.69570  -0.69047  -0.67532
 Alpha  occ. eigenvalues --   -0.65747  -0.65379  -0.64451  -0.63862  -0.63280
 Alpha  occ. eigenvalues --   -0.62519  -0.61438  -0.61268  -0.61127  -0.60705
 Alpha  occ. eigenvalues --   -0.60476  -0.60266  -0.60063  -0.59658  -0.59171
 Alpha  occ. eigenvalues --   -0.58949  -0.58737  -0.58492  -0.58447  -0.58397
 Alpha  occ. eigenvalues --   -0.58009  -0.57699  -0.56987  -0.56794  -0.56719
 Alpha  occ. eigenvalues --   -0.56349  -0.56193  -0.56053  -0.55771  -0.55643
 Alpha  occ. eigenvalues --   -0.55472  -0.55389  -0.54640  -0.54594  -0.54176
 Alpha  occ. eigenvalues --   -0.53967  -0.53446  -0.53336  -0.53323  -0.53005
 Alpha  occ. eigenvalues --   -0.52887  -0.52827  -0.52524  -0.51891  -0.51299
 Alpha  occ. eigenvalues --   -0.51136  -0.50874  -0.50551  -0.49599  -0.48677
 Alpha  occ. eigenvalues --   -0.48313  -0.47257  -0.46798  -0.46126  -0.45085
 Alpha  occ. eigenvalues --   -0.44883  -0.44141
 Alpha virt. eigenvalues --   -0.10775  -0.07477  -0.01576  -0.00386   0.01752
 Alpha virt. eigenvalues --    0.04188   0.05617   0.07367   0.08387   0.09553
 Alpha virt. eigenvalues --    0.10385   0.11672   0.12432   0.13076   0.14000

  Beta  occ. eigenvalues --  -24.88430 -24.88200 -24.87982 -24.87601 -24.87302
  Beta  occ. eigenvalues --  -24.86956 -24.86938 -24.86842 -24.86756 -24.86687
  Beta  occ. eigenvalues --  -24.86606 -24.86326 -24.86268 -24.85980 -24.85837
  Beta  occ. eigenvalues --  -24.85532 -24.85494 -24.85283 -19.43355 -19.38544
  Beta  occ. eigenvalues --  -19.35982 -19.34067 -19.33931 -14.62492 -14.61000
  Beta  occ. eigenvalues --  -14.60005 -10.63469 -10.61763 -10.59784 -10.59628
  Beta  occ. eigenvalues --  -10.58357 -10.58125 -10.58121 -10.54797 -10.54537
  Beta  occ. eigenvalues --  -10.54303 -10.52801 -10.38293 -10.31333 -10.28911
  Beta  occ. eigenvalues --   -1.46739  -1.45896  -1.45724  -1.44581  -1.44241
  Beta  occ. eigenvalues --   -1.43247  -1.39401  -1.38892  -1.37397  -1.37035
  Beta  occ. eigenvalues --   -1.36728  -1.36479  -1.36156  -1.36076  -1.35713
  Beta  occ. eigenvalues --   -1.35428  -1.35079  -1.34917  -1.34189  -1.29524
  Beta  occ. eigenvalues --   -1.26378  -1.25490  -1.23248  -1.19912  -1.16683
  Beta  occ. eigenvalues --   -1.15750  -0.99376  -0.97301  -0.95041  -0.91540
  Beta  occ. eigenvalues --   -0.91257  -0.88441  -0.86241  -0.84992  -0.84726
  Beta  occ. eigenvalues --   -0.83821  -0.82898  -0.81224  -0.79114  -0.77803
  Beta  occ. eigenvalues --   -0.76671  -0.76318  -0.75454  -0.74967  -0.74207
  Beta  occ. eigenvalues --   -0.73668  -0.73418  -0.73202  -0.72813  -0.72140
  Beta  occ. eigenvalues --   -0.72100  -0.71607  -0.71390  -0.70980  -0.70808
  Beta  occ. eigenvalues --   -0.70574  -0.70122  -0.69426  -0.68682  -0.67467
  Beta  occ. eigenvalues --   -0.65414  -0.64942  -0.64211  -0.63075  -0.63026
  Beta  occ. eigenvalues --   -0.61455  -0.61221  -0.61086  -0.60891  -0.60560
  Beta  occ. eigenvalues --   -0.60326  -0.60036  -0.59773  -0.59616  -0.58946
  Beta  occ. eigenvalues --   -0.58703  -0.58488  -0.58418  -0.58331  -0.58005
  Beta  occ. eigenvalues --   -0.57859  -0.57000  -0.56862  -0.56637  -0.56296
  Beta  occ. eigenvalues --   -0.56244  -0.55994  -0.55759  -0.55610  -0.55426
  Beta  occ. eigenvalues --   -0.55291  -0.54629  -0.54539  -0.54157  -0.53967
  Beta  occ. eigenvalues --   -0.53425  -0.53339  -0.53274  -0.52913  -0.52856
  Beta  occ. eigenvalues --   -0.52787  -0.52518  -0.51865  -0.51132  -0.51029
  Beta  occ. eigenvalues --   -0.50641  -0.50313  -0.49072  -0.48289  -0.47560
  Beta  occ. eigenvalues --   -0.46506  -0.46025  -0.45322  -0.44422  -0.43884
  Beta  occ. eigenvalues --   -0.43582
  Beta virt. eigenvalues --   -0.31728  -0.10468  -0.07319  -0.01476  -0.00278
  Beta virt. eigenvalues --    0.01775   0.04228   0.05638   0.07457   0.08550
  Beta virt. eigenvalues --    0.09691   0.10497   0.11690   0.12497   0.13224

 Mulliken charges and spin densities:
               1          2
     1  C   -0.337643   0.008349
     2  C   -0.197525   0.006105
     3  C   -0.124290   0.016382
     4  N   -0.572342   0.069295
     5  C    0.876925  -0.030945
     6  O   -0.380224   0.167386
     7  N   -0.618093   0.012851
     8  C    0.766999  -0.001040
     9  F   -0.244694   0.001992
    10  F   -0.255685   0.001375
    11  C    0.430211  -0.000189
    12  F   -0.249105   0.003849
    13  O   -0.490815   0.000162
    14  C    0.990480  -0.000027
    15  F   -0.237809   0.000010
    16  F   -0.233776   0.000013
    17  F   -0.237845   0.000000
    18  C    0.801144   0.000120
    19  F   -0.238329   0.000012
    20  F   -0.255333   0.000073
    21  F   -0.230802   0.000061
    22  C    0.840427  -0.015752
    23  O   -0.359508   0.087060
    24  N   -0.613906   0.030724
    25  C    0.762941  -0.002028
    26  F   -0.239092   0.000090
    27  F   -0.249558   0.000335
    28  C    0.395079  -0.005200
    29  F   -0.250902   0.001450
    30  O   -0.477231   0.055054
    31  C    1.013204  -0.002302
    32  F   -0.246685   0.000464
    33  F   -0.231478   0.001772
    34  F   -0.226484   0.000466
    35  C    0.822967   0.000021
    36  F   -0.231111   0.000128
    37  F   -0.244216   0.003262
    38  F   -0.234125  -0.000043
    39  C    0.964964  -0.072230
    40  O   -0.249874   0.646951
    41  H    0.147624  -0.000184
    42  H    0.103442  -0.000305
    43  H    0.130362   0.000244
    44  H    0.147738   0.004281
    45  H    0.160525   0.000434
    46  H    0.192356  -0.000704
    47  H    0.211093   0.010178
 Sum of Mulliken charges =   1.00000   1.00000

 Dipole moment (field-independent basis, Debye):
    X=              4.1728    Y=              5.1433    Z=              1.3391  Tot=              6.7571
 Quadrupole moment (field-independent basis, Debye-Ang):
   XX=           -193.0385   YY=           -192.4026   ZZ=           -206.6091
   XY=              5.4359   XZ=              1.8557   YZ=              5.6695

 Normal termination of Gaussian 09 at Sun Mar  3 17:30:27 2024.
