 Gaussian 09, Revision D.01,
 Gaussian 09:  ES64L-G09RevD.01 24-Apr-2013

 ----------------------------------------------------------------------
 #p CAM-B3LYP/6-31G(d,p) SCRF=(PCM,Solvent=Generic,Read) NoSymm out=wfn
 ----------------------------------------------------------------------

 --------------------
 Title A1374950782_p1
 --------------------
 Symbolic Z-matrix:
 Charge =  1 Multiplicity = 2

                          Input orientation:
 ---------------------------------------------------------------------
 Center     Atomic      Atomic             Coordinates (Angstroms)
 Number     Number       Type             X           Y           Z
 ---------------------------------------------------------------------
      1          8           0       -2.621876   -1.638220   -1.674381
      2          6           0       -1.457800   -1.436686   -1.348686
      3          7           0       -0.443896   -2.283311   -1.727442
      4          9           0       -0.770939   -3.501925   -2.284922
      5          6           0        0.850466   -2.120052   -1.160864
      6          7           0        1.176276   -0.727556   -1.149169
      7          6           0        2.585471   -0.357300   -1.063186
      8          9           0        2.795547    0.770375   -1.778567
      9          9           0        3.278802   -1.319618   -1.738979
     10          6           0        3.151873   -0.257523    0.378258
     11          9           0        2.943755   -1.504126    0.948574
     12          8           0        2.433237    0.605927    1.262318
     13          6           0        2.828183    1.957924    1.197657
     14          9           0        1.899593    2.714028    1.806588
     15          9           0        2.981298    2.361061   -0.068407
     16          9           0        3.993566    2.101650    1.851447
     17          6           0        4.670545   -0.062771    0.271625
     18          9           0        5.015043    1.080434   -0.353803
     19          9           0        5.269826   -1.077224   -0.393267
     20          9           0        5.235424   -0.030336    1.503940
     21          6           0        0.211069    0.165591   -0.742070
     22          8           0        0.502734    1.339946   -0.547991
     23          7           0       -1.066722   -0.348959   -0.590972
     24          6           0       -2.102625    0.573554   -0.144961
     25          9           0       -2.471194    1.326191   -1.219419
     26          9           0       -1.545352    1.462199    0.739665
     27          6           0       -3.381711    0.054236    0.592670
     28          9           0       -4.224653   -0.649578   -0.202603
     29          8           0       -4.196054    1.075668    1.201271
     30          6           0       -4.617174    2.058594    0.291062
     31          9           0       -5.703879    2.670435    0.799098
     32          9           0       -3.643327    2.971924    0.144918
     33          9           0       -4.935627    1.531551   -0.900637
     34          6           0       -2.883763   -0.851403    1.718596
     35          9           0       -3.905883   -1.343851    2.459424
     36          9           0       -2.184268   -1.918907    1.263940
     37          9           0       -2.061978   -0.196150    2.572772
     38          1           0        0.845027   -2.506843   -0.136453
     39          1           0        1.550988   -2.688952   -1.777044
 ---------------------------------------------------------------------

 SCF Done:  E(UCAM-B3LYP) =  -2781.30419731     A.U. after   29 cycles

 Alpha  occ. eigenvalues --  -25.00478 -24.88303 -24.88072 -24.87347 -24.87023
 Alpha  occ. eigenvalues --  -24.86982 -24.86975 -24.86272 -24.86199 -24.85953
 Alpha  occ. eigenvalues --  -24.85911 -24.85793 -24.85769 -24.85735 -24.85609
 Alpha  occ. eigenvalues --  -24.85339 -24.85139 -24.85086 -24.85009 -19.37839
 Alpha  occ. eigenvalues --  -19.36263 -19.35739 -19.29922 -14.76979 -14.60757
 Alpha  occ. eigenvalues --  -14.58288 -10.61934 -10.61575 -10.58768 -10.58439
 Alpha  occ. eigenvalues --  -10.58140 -10.57832 -10.57010 -10.52929 -10.52790
 Alpha  occ. eigenvalues --  -10.52396 -10.48889  -1.51107  -1.45667  -1.45596
 Alpha  occ. eigenvalues --   -1.44937  -1.44461  -1.43546  -1.43005  -1.39277
 Alpha  occ. eigenvalues --   -1.39195  -1.36917  -1.36630  -1.36101  -1.35812
 Alpha  occ. eigenvalues --   -1.35480  -1.35402  -1.35124  -1.35013  -1.34760
 Alpha  occ. eigenvalues --   -1.34445  -1.31911  -1.26431  -1.23669  -1.23015
 Alpha  occ. eigenvalues --   -1.21705  -1.16559  -1.13944  -0.98656  -0.97586
 Alpha  occ. eigenvalues --   -0.95701  -0.90999  -0.88887  -0.85922  -0.85120
 Alpha  occ. eigenvalues --   -0.83554  -0.82891  -0.82044  -0.79191  -0.78808
 Alpha  occ. eigenvalues --   -0.78470  -0.76909  -0.76322  -0.75233  -0.74917
 Alpha  occ. eigenvalues --   -0.73898  -0.73763  -0.73137  -0.72575  -0.71861
 Alpha  occ. eigenvalues --   -0.71784  -0.71368  -0.71224  -0.70814  -0.70738
 Alpha  occ. eigenvalues --   -0.70189  -0.69670  -0.69063  -0.68741  -0.67749
 Alpha  occ. eigenvalues --   -0.67486  -0.65996  -0.65062  -0.63934  -0.62851
 Alpha  occ. eigenvalues --   -0.62628  -0.61435  -0.60962  -0.60233  -0.60138
 Alpha  occ. eigenvalues --   -0.59929  -0.59736  -0.59645  -0.59469  -0.59254
 Alpha  occ. eigenvalues --   -0.58819  -0.58299  -0.58217  -0.57805  -0.57482
 Alpha  occ. eigenvalues --   -0.57151  -0.56912  -0.56557  -0.56200  -0.55875
 Alpha  occ. eigenvalues --   -0.55629  -0.55539  -0.55152  -0.54931  -0.54582
 Alpha  occ. eigenvalues --   -0.53990  -0.53930  -0.53864  -0.53659  -0.53355
 Alpha  occ. eigenvalues --   -0.53056  -0.52720  -0.52663  -0.52185  -0.52032
 Alpha  occ. eigenvalues --   -0.51968  -0.51703  -0.51429  -0.51003  -0.50137
 Alpha  occ. eigenvalues --   -0.48630  -0.47946  -0.47403  -0.47202  -0.43835
 Alpha  occ. eigenvalues --   -0.43001
 Alpha virt. eigenvalues --   -0.11860  -0.07719  -0.03006   0.00964   0.01862
 Alpha virt. eigenvalues --    0.05062   0.05434   0.07453   0.07969   0.09362
 Alpha virt. eigenvalues --    0.09479   0.11592   0.13360   0.14746   0.14925

  Beta  occ. eigenvalues --  -25.00095 -24.88301 -24.88070 -24.87343 -24.87017
  Beta  occ. eigenvalues --  -24.86984 -24.86966 -24.86272 -24.86194 -24.85953
  Beta  occ. eigenvalues --  -24.85911 -24.85793 -24.85769 -24.85735 -24.85609
  Beta  occ. eigenvalues --  -24.85339 -24.85139 -24.85085 -24.85009 -19.37073
  Beta  occ. eigenvalues --  -19.36263 -19.35738 -19.29925 -14.75414 -14.60794
  Beta  occ. eigenvalues --  -14.58212 -10.61934 -10.61575 -10.58768 -10.58438
  Beta  occ. eigenvalues --  -10.58140 -10.57833 -10.57274 -10.52930 -10.52791
  Beta  occ. eigenvalues --  -10.52402 -10.48904  -1.49903  -1.45665  -1.45594
  Beta  occ. eigenvalues --   -1.44937  -1.44458  -1.43539  -1.43001  -1.39266
  Beta  occ. eigenvalues --   -1.39188  -1.36907  -1.36625  -1.36097  -1.35810
  Beta  occ. eigenvalues --   -1.35480  -1.35401  -1.35123  -1.35013  -1.34759
  Beta  occ. eigenvalues --   -1.34445  -1.30997  -1.25854  -1.23644  -1.23009
  Beta  occ. eigenvalues --   -1.20336  -1.16352  -1.12780  -0.98381  -0.97409
  Beta  occ. eigenvalues --   -0.95479  -0.90902  -0.88438  -0.85825  -0.85115
  Beta  occ. eigenvalues --   -0.83540  -0.82531  -0.81809  -0.78871  -0.78311
  Beta  occ. eigenvalues --   -0.76807  -0.76379  -0.75934  -0.75120  -0.74198
  Beta  occ. eigenvalues --   -0.73836  -0.73418  -0.72968  -0.72556  -0.71792
  Beta  occ. eigenvalues --   -0.71751  -0.71225  -0.71086  -0.70778  -0.70532
  Beta  occ. eigenvalues --   -0.69913  -0.69628  -0.68872  -0.68293  -0.67529
  Beta  occ. eigenvalues --   -0.66190  -0.65586  -0.63901  -0.63443  -0.62668
  Beta  occ. eigenvalues --   -0.62527  -0.60954  -0.60480  -0.60145  -0.60022
  Beta  occ. eigenvalues --   -0.59753  -0.59646  -0.59500  -0.59424  -0.59144
  Beta  occ. eigenvalues --   -0.58574  -0.58233  -0.58164  -0.57602  -0.57467
  Beta  occ. eigenvalues --   -0.57138  -0.56851  -0.56340  -0.56102  -0.55837
  Beta  occ. eigenvalues --   -0.55593  -0.55439  -0.55091  -0.54920  -0.54445
  Beta  occ. eigenvalues --   -0.53959  -0.53847  -0.53792  -0.53557  -0.53348
  Beta  occ. eigenvalues --   -0.52719  -0.52703  -0.52184  -0.52028  -0.51975
  Beta  occ. eigenvalues --   -0.51742  -0.51428  -0.50995  -0.49555  -0.48580
  Beta  occ. eigenvalues --   -0.47473  -0.47206  -0.46454  -0.43601  -0.42905
  Beta virt. eigenvalues --   -0.28836  -0.09995  -0.06107  -0.02618   0.00982
  Beta virt. eigenvalues --    0.01889   0.05243   0.05479   0.07928   0.07979
  Beta virt. eigenvalues --    0.09625   0.09993   0.11885   0.13609   0.14807

 Mulliken charges and spin densities:
               1          2
     1  O   -0.323449   0.303476
     2  C    0.848775  -0.150882
     3  N    0.070093   0.644211
     4  F   -0.056693   0.087785
     5  C    0.050906  -0.025431
     6  N   -0.610487   0.034325
     7  C    0.766764  -0.000171
     8  F   -0.226565   0.002161
     9  F   -0.259941   0.000411
    10  C    0.438363  -0.000347
    11  F   -0.276715   0.000733
    12  O   -0.507285   0.000058
    13  C    1.017799  -0.000027
    14  F   -0.235992   0.000002
    15  F   -0.239414  -0.000005
    16  F   -0.242342   0.000002
    17  C    0.815036  -0.000007
    18  F   -0.238600   0.000016
    19  F   -0.243623   0.000010
    20  F   -0.250763  -0.000041
    21  C    0.888743  -0.002018
    22  O   -0.446567  -0.000307
    23  N   -0.652087  -0.009001
    24  C    0.780076  -0.000264
    25  F   -0.246162   0.001484
    26  F   -0.246422  -0.000268
    27  C    0.407129  -0.000158
    28  F   -0.239761   0.001197
    29  O   -0.502350   0.000124
    30  C    1.002275  -0.000018
    31  F   -0.234262  -0.000003
    32  F   -0.240562   0.000041
    33  F   -0.240970   0.000013
    34  C    0.815320  -0.000153
    35  F   -0.237931   0.000001
    36  F   -0.252817   0.000505
    37  F   -0.236116  -0.000013
    38  H    0.301216   0.090032
    39  H    0.285380   0.022529
 Sum of Mulliken charges =   1.00000   1.00000

 Dipole moment (field-independent basis, Debye):
    X=              0.5665    Y=            -11.0591    Z=             -6.1268  Tot=             12.6555
 Quadrupole moment (field-independent basis, Debye-Ang):
   XX=           -184.4051   YY=           -165.5007   ZZ=           -179.9236
   XY=             -3.9870   XZ=             -1.0820   YZ=             15.3197

 Normal termination of Gaussian 09 at Sun Mar  3 17:47:04 2024.
