 Gaussian 09, Revision D.01,
 Gaussian 09:  ES64L-G09RevD.01 24-Apr-2013

 ----------------------------------------------------------------------
 #p CAM-B3LYP/6-31G(d,p) SCRF=(PCM,Solvent=Generic,Read) NoSymm out=wfn
 ----------------------------------------------------------------------

 -------------------
 Title A1374950782_0
 -------------------
 Symbolic Z-matrix:
 Charge =  0 Multiplicity = 1

                          Input orientation:
 ---------------------------------------------------------------------
 Center     Atomic      Atomic             Coordinates (Angstroms)
 Number     Number       Type             X           Y           Z
 ---------------------------------------------------------------------
      1          8           0       -2.621876   -1.638220   -1.674381
      2          6           0       -1.457800   -1.436686   -1.348686
      3          7           0       -0.443896   -2.283311   -1.727442
      4          9           0       -0.770939   -3.501925   -2.284922
      5          6           0        0.850466   -2.120052   -1.160864
      6          7           0        1.176276   -0.727556   -1.149169
      7          6           0        2.585471   -0.357300   -1.063186
      8          9           0        2.795547    0.770375   -1.778567
      9          9           0        3.278802   -1.319618   -1.738979
     10          6           0        3.151873   -0.257523    0.378258
     11          9           0        2.943755   -1.504126    0.948574
     12          8           0        2.433237    0.605927    1.262318
     13          6           0        2.828183    1.957924    1.197657
     14          9           0        1.899593    2.714028    1.806588
     15          9           0        2.981298    2.361061   -0.068407
     16          9           0        3.993566    2.101650    1.851447
     17          6           0        4.670545   -0.062771    0.271625
     18          9           0        5.015043    1.080434   -0.353803
     19          9           0        5.269826   -1.077224   -0.393267
     20          9           0        5.235424   -0.030336    1.503940
     21          6           0        0.211069    0.165591   -0.742070
     22          8           0        0.502734    1.339946   -0.547991
     23          7           0       -1.066722   -0.348959   -0.590972
     24          6           0       -2.102625    0.573554   -0.144961
     25          9           0       -2.471194    1.326191   -1.219419
     26          9           0       -1.545352    1.462199    0.739665
     27          6           0       -3.381711    0.054236    0.592670
     28          9           0       -4.224653   -0.649578   -0.202603
     29          8           0       -4.196054    1.075668    1.201271
     30          6           0       -4.617174    2.058594    0.291062
     31          9           0       -5.703879    2.670435    0.799098
     32          9           0       -3.643327    2.971924    0.144918
     33          9           0       -4.935627    1.531551   -0.900637
     34          6           0       -2.883763   -0.851403    1.718596
     35          9           0       -3.905883   -1.343851    2.459424
     36          9           0       -2.184268   -1.918907    1.263940
     37          9           0       -2.061978   -0.196150    2.572772
     38          1           0        0.845027   -2.506843   -0.136453
     39          1           0        1.550988   -2.688952   -1.777044
 ---------------------------------------------------------------------

 SCF Done:  E(RCAM-B3LYP) =  -2781.62386477     A.U. after   13 cycles

 Alpha  occ. eigenvalues --  -24.84828 -24.84231 -24.84028 -24.83962 -24.83750
 Alpha  occ. eigenvalues --  -24.83555 -24.83510 -24.83462 -24.83415 -24.83329
 Alpha  occ. eigenvalues --  -24.83317 -24.83180 -24.83031 -24.82899 -24.82880
 Alpha  occ. eigenvalues --  -24.82823 -24.82598 -24.82419 -24.82213 -19.33354
 Alpha  occ. eigenvalues --  -19.32797 -19.23653 -19.23267 -14.55530 -14.52755
 Alpha  occ. eigenvalues --  -14.50815 -10.59596 -10.59242 -10.55696 -10.55495
 Alpha  occ. eigenvalues --  -10.53421 -10.53131 -10.49433 -10.49125 -10.45971
 Alpha  occ. eigenvalues --  -10.45391 -10.38338  -1.43329  -1.42809  -1.42060
 Alpha  occ. eigenvalues --   -1.42006  -1.39735  -1.38658  -1.35987  -1.35869
 Alpha  occ. eigenvalues --   -1.35448  -1.33895  -1.33339  -1.33158  -1.33119
 Alpha  occ. eigenvalues --   -1.32892  -1.32741  -1.32564  -1.32431  -1.32160
 Alpha  occ. eigenvalues --   -1.31568  -1.21393  -1.20701  -1.20065  -1.16942
 Alpha  occ. eigenvalues --   -1.10995  -1.08264  -1.02215  -0.93612  -0.93121
 Alpha  occ. eigenvalues --   -0.86649  -0.85256  -0.82552  -0.81425  -0.80705
 Alpha  occ. eigenvalues --   -0.79055  -0.77342  -0.75402  -0.74335  -0.73042
 Alpha  occ. eigenvalues --   -0.72683  -0.71929  -0.71538  -0.71085  -0.70455
 Alpha  occ. eigenvalues --   -0.70213  -0.69557  -0.69333  -0.68601  -0.68342
 Alpha  occ. eigenvalues --   -0.68106  -0.67769  -0.67059  -0.66659  -0.66039
 Alpha  occ. eigenvalues --   -0.65134  -0.64498  -0.63965  -0.63287  -0.60393
 Alpha  occ. eigenvalues --   -0.59869  -0.59571  -0.58063  -0.57706  -0.57361
 Alpha  occ. eigenvalues --   -0.56916  -0.56742  -0.56640  -0.56426  -0.56200
 Alpha  occ. eigenvalues --   -0.56016  -0.55795  -0.55536  -0.54998  -0.54752
 Alpha  occ. eigenvalues --   -0.54682  -0.54516  -0.54097  -0.53687  -0.53578
 Alpha  occ. eigenvalues --   -0.53458  -0.53028  -0.52732  -0.52462  -0.52313
 Alpha  occ. eigenvalues --   -0.52034  -0.51687  -0.51546  -0.51394  -0.51014
 Alpha  occ. eigenvalues --   -0.50787  -0.50667  -0.50465  -0.50320  -0.50183
 Alpha  occ. eigenvalues --   -0.49938  -0.49730  -0.49642  -0.49246  -0.49002
 Alpha  occ. eigenvalues --   -0.48503  -0.48407  -0.48277  -0.45321  -0.44415
 Alpha  occ. eigenvalues --   -0.43692  -0.40070  -0.38231  -0.37611  -0.36718
 Alpha  occ. eigenvalues --   -0.35011
 Alpha virt. eigenvalues --    0.01244   0.02763   0.04727   0.05854   0.06220
 Alpha virt. eigenvalues --    0.09404   0.10092   0.12639   0.15052   0.15337
 Alpha virt. eigenvalues --    0.17359   0.18188   0.18539   0.19063   0.19784

 Mulliken charges:
               1
     1  O   -0.497923
     2  C    0.782491
     3  N   -0.132454
     4  F   -0.203368
     5  C    0.094637
     6  N   -0.602958
     7  C    0.758402
     8  F   -0.242588
     9  F   -0.270811
    10  C    0.437426
    11  F   -0.279330
    12  O   -0.508031
    13  C    1.014642
    14  F   -0.240431
    15  F   -0.240119
    16  F   -0.248326
    17  C    0.806787
    18  F   -0.243367
    19  F   -0.247119
    20  F   -0.257755
    21  C    0.853498
    22  O   -0.499348
    23  N   -0.650889
    24  C    0.776933
    25  F   -0.262984
    26  F   -0.264669
    27  C    0.412146
    28  F   -0.241768
    29  O   -0.515517
    30  C    0.996930
    31  F   -0.240973
    32  F   -0.243120
    33  F   -0.241613
    34  C    0.807020
    35  F   -0.248396
    36  F   -0.246005
    37  F   -0.243830
    38  H    0.173350
    39  H    0.199430
 Sum of Mulliken charges =   0.00000

 Dipole moment (field-independent basis, Debye):
    X=              3.2422    Y=             -3.1265    Z=              0.0776  Tot=              4.5047
 Quadrupole moment (field-independent basis, Debye-Ang):
   XX=           -205.2478   YY=           -192.8225   ZZ=           -196.5435
   XY=             -8.2211   XZ=             -5.4989   YZ=              0.4037

 Normal termination of Gaussian 09 at Sun Mar  3 17:45:49 2024.
