 Gaussian 09, Revision D.01,
 Gaussian 09:  ES64L-G09RevD.01 24-Apr-2013

 ----------------------------------------------------------------------
 #p CAM-B3LYP/6-31G(d,p) SCRF=(PCM,Solvent=Generic,Read) NoSymm out=wfn
 ----------------------------------------------------------------------

 ------------------
 Title A150513912_0
 ------------------
 Symbolic Z-matrix:
 Charge =  0 Multiplicity = 1

                          Input orientation:
 ---------------------------------------------------------------------
 Center     Atomic      Atomic             Coordinates (Angstroms)
 Number     Number       Type             X           Y           Z
 ---------------------------------------------------------------------
      1          8           0        0.497549   -2.205214   -1.332832
      2          6           0        0.187873   -1.147542   -0.798867
      3          7           0       -1.088400   -0.948062   -0.353355
      4          6           0       -2.079325   -2.008517   -0.514994
      5          9           0       -2.010386   -2.505136   -1.773336
      6          9           0       -3.295424   -1.369088   -0.477198
      7          6           0       -2.150447   -3.141513    0.546818
      8          9           0       -1.969428   -2.533695    1.778567
      9          8           0       -3.460283   -3.715732    0.702588
     10          6           0       -3.896964   -4.491195   -0.384739
     11          9           0       -3.941619   -3.752409   -1.499890
     12          9           0       -5.136715   -4.939057   -0.114740
     13          9           0       -3.088775   -5.544724   -0.560244
     14          6           0       -1.015805   -4.150332    0.378583
     15          9           0       -0.918108   -4.637869   -0.871770
     16          9           0        0.177600   -3.615418    0.723140
     17          9           0       -1.201963   -5.208781    1.209699
     18          6           0       -1.315850    0.018721    0.673760
     19          7           0       -0.550976    1.203557    0.450331
     20          6           0       -0.904023    2.363336    1.259301
     21          9           0       -2.210425    2.205527    1.646662
     22          9           0       -0.207504    2.262583    2.429382
     23          6           0       -0.772875    3.806159    0.684500
     24          9           0        0.519381    4.116360    0.408176
     25          8           0       -1.178675    4.711592    1.726798
     26          6           0       -1.317231    6.034781    1.283238
     27          9           0       -1.305068    6.850007    2.353765
     28          9           0       -0.323534    6.386621    0.454459
     29          9           0       -2.502388    6.162269    0.662326
     30          6           0       -1.610806    3.824295   -0.598654
     31          9           0       -2.919242    3.590156   -0.345068
     32          9           0       -1.540295    5.012422   -1.240566
     33          9           0       -1.209969    2.888129   -1.490885
     34          6           0        0.756563    1.054577    0.063363
     35          8           0        1.588973    1.920499    0.297211
     36          7           0        1.073529   -0.112330   -0.600241
     37          6           0        2.461826   -0.270630   -1.023515
     38          9           0        2.816432    0.880298   -1.672865
     39          9           0        2.577026   -1.213010   -2.003972
     40          6           0        3.520688   -0.585879    0.073831
     41          9           0        3.590429    0.410093    1.004120
     42          8           0        4.866110   -0.806144   -0.378807
     43          6           0        5.375532    0.248881   -1.150605
     44          9           0        5.007538    1.442822   -0.663966
     45          9           0        6.720126    0.172039   -1.138595
     46          9           0        4.953490    0.112234   -2.418545
     47          6           0        3.067038   -1.852169    0.793212
     48          9           0        3.935473   -2.199461    1.776212
     49          9           0        1.862118   -1.681011    1.394176
     50          9           0        2.966594   -2.913036   -0.033160
     51          1           0       -1.021007   -0.404078    1.640419
     52          1           0       -2.378378    0.274074    0.685466
 ---------------------------------------------------------------------

 SCF Done:  E(RCAM-B3LYP) =  -3807.81130426     A.U. after   13 cycles

 Alpha  occ. eigenvalues --  -24.84613 -24.84194 -24.84138 -24.84113 -24.84108
 Alpha  occ. eigenvalues --  -24.84045 -24.83794 -24.83772 -24.83713 -24.83566
 Alpha  occ. eigenvalues --  -24.83535 -24.83438 -24.83435 -24.83344 -24.83311
 Alpha  occ. eigenvalues --  -24.83239 -24.83215 -24.83038 -24.83026 -24.82974
 Alpha  occ. eigenvalues --  -24.82940 -24.82893 -24.82864 -24.82699 -24.82665
 Alpha  occ. eigenvalues --  -24.82214 -24.82183 -19.33504 -19.32993 -19.32974
 Alpha  occ. eigenvalues --  -19.23939 -19.23420 -14.53033 -14.50913 -14.50654
 Alpha  occ. eigenvalues --  -10.60001 -10.59620 -10.59323 -10.55846 -10.55645
 Alpha  occ. eigenvalues --  -10.55417 -10.53602 -10.53176 -10.53120 -10.49428
 Alpha  occ. eigenvalues --  -10.49321 -10.49025 -10.45938 -10.45834 -10.38114
 Alpha  occ. eigenvalues --   -1.43765  -1.43359  -1.42877  -1.42218  -1.42166
 Alpha  occ. eigenvalues --   -1.41764  -1.39273  -1.39225  -1.38905  -1.36101
 Alpha  occ. eigenvalues --   -1.35803  -1.35666  -1.34371  -1.33651  -1.33578
 Alpha  occ. eigenvalues --   -1.33503  -1.33494  -1.33216  -1.33133  -1.32808
 Alpha  occ. eigenvalues --   -1.32771  -1.32704  -1.32440  -1.32193  -1.31926
 Alpha  occ. eigenvalues --   -1.31870  -1.31439  -1.22125  -1.20832  -1.20440
 Alpha  occ. eigenvalues --   -1.20382  -1.18000  -1.11802  -1.09024  -1.06379
 Alpha  occ. eigenvalues --   -0.94283  -0.93621  -0.93018  -0.86847  -0.85847
 Alpha  occ. eigenvalues --   -0.84061  -0.82741  -0.82553  -0.81329  -0.80897
 Alpha  occ. eigenvalues --   -0.79034  -0.77654  -0.76059  -0.75817  -0.74310
 Alpha  occ. eigenvalues --   -0.73732  -0.73215  -0.72730  -0.72334  -0.71725
 Alpha  occ. eigenvalues --   -0.71426  -0.70853  -0.70780  -0.70602  -0.70538
 Alpha  occ. eigenvalues --   -0.69910  -0.69790  -0.69407  -0.68946  -0.68889
 Alpha  occ. eigenvalues --   -0.68469  -0.68028  -0.67890  -0.67823  -0.67441
 Alpha  occ. eigenvalues --   -0.66490  -0.66006  -0.65723  -0.65599  -0.65032
 Alpha  occ. eigenvalues --   -0.64073  -0.63173  -0.63018  -0.60508  -0.60126
 Alpha  occ. eigenvalues --   -0.59666  -0.59118  -0.57947  -0.57739  -0.57714
 Alpha  occ. eigenvalues --   -0.57392  -0.57257  -0.57205  -0.57084  -0.56769
 Alpha  occ. eigenvalues --   -0.56597  -0.56324  -0.56173  -0.56057  -0.55824
 Alpha  occ. eigenvalues --   -0.55743  -0.55578  -0.55178  -0.55035  -0.54911
 Alpha  occ. eigenvalues --   -0.54891  -0.54723  -0.54510  -0.54279  -0.54038
 Alpha  occ. eigenvalues --   -0.53592  -0.53349  -0.53318  -0.53221  -0.53013
 Alpha  occ. eigenvalues --   -0.52860  -0.52660  -0.52350  -0.52287  -0.52197
 Alpha  occ. eigenvalues --   -0.52069  -0.51784  -0.51519  -0.51429  -0.51196
 Alpha  occ. eigenvalues --   -0.51137  -0.51041  -0.50826  -0.50676  -0.50590
 Alpha  occ. eigenvalues --   -0.50459  -0.50366  -0.50027  -0.49973  -0.49846
 Alpha  occ. eigenvalues --   -0.49604  -0.49320  -0.49121  -0.48995  -0.48883
 Alpha  occ. eigenvalues --   -0.48597  -0.48342  -0.48137  -0.45885  -0.45728
 Alpha  occ. eigenvalues --   -0.44685  -0.44448  -0.44160  -0.39619  -0.38977
 Alpha  occ. eigenvalues --   -0.38551  -0.36684  -0.36185
 Alpha virt. eigenvalues --    0.00137   0.04175   0.05235   0.05934   0.06024
 Alpha virt. eigenvalues --    0.07124   0.07766   0.09141   0.12768   0.14228
 Alpha virt. eigenvalues --    0.15110   0.15646   0.16733   0.17560   0.18135

 Mulliken charges:
               1
     1  O   -0.499752
     2  C    0.833244
     3  N   -0.589506
     4  C    0.756436
     5  F   -0.247178
     6  F   -0.284304
     7  C    0.422767
     8  F   -0.279114
     9  O   -0.495832
    10  C    0.972307
    11  F   -0.230304
    12  F   -0.238025
    13  F   -0.233857
    14  C    0.832881
    15  F   -0.241674
    16  F   -0.244762
    17  F   -0.261417
    18  C    0.098121
    19  N   -0.596667
    20  C    0.756601
    21  F   -0.277099
    22  F   -0.263102
    23  C    0.424788
    24  F   -0.241998
    25  O   -0.513715
    26  C    0.995945
    27  F   -0.238444
    28  F   -0.241137
    29  F   -0.246174
    30  C    0.809453
    31  F   -0.244940
    32  F   -0.251690
    33  F   -0.242735
    34  C    0.841247
    35  O   -0.492211
    36  N   -0.666891
    37  C    0.756746
    38  F   -0.263981
    39  F   -0.242791
    40  C    0.436567
    41  F   -0.254378
    42  O   -0.515126
    43  C    0.999426
    44  F   -0.240064
    45  F   -0.241345
    46  F   -0.244058
    47  C    0.804890
    48  F   -0.249828
    49  F   -0.257867
    50  F   -0.234629
    51  H    0.171560
    52  H    0.193614
 Sum of Mulliken charges =   0.00000

 Dipole moment (field-independent basis, Debye):
    X=             -3.2178    Y=              0.2560    Z=              1.1370  Tot=              3.4224
 Quadrupole moment (field-independent basis, Debye-Ang):
   XX=           -265.6729   YY=           -271.6125   ZZ=           -265.0016
   XY=             -0.3656   XZ=              0.2391   YZ=             -4.7019

 Normal termination of Gaussian 09 at Sun Mar  3 17:27:46 2024.
