 Gaussian 09, Revision D.01,
 Gaussian 09:  ES64L-G09RevD.01 24-Apr-2013

 ----------------------------------------------------------------------
 #p CAM-B3LYP/6-31G(d,p) SCRF=(PCM,Solvent=Generic,Read) NoSymm out=wfn
 ----------------------------------------------------------------------

 -------------------
 Title A150513912_p1
 -------------------
 Symbolic Z-matrix:
 Charge =  1 Multiplicity = 2

                          Input orientation:
 ---------------------------------------------------------------------
 Center     Atomic      Atomic             Coordinates (Angstroms)
 Number     Number       Type             X           Y           Z
 ---------------------------------------------------------------------
      1          8           0        0.497549   -2.205214   -1.332832
      2          6           0        0.187873   -1.147542   -0.798867
      3          7           0       -1.088400   -0.948062   -0.353355
      4          6           0       -2.079325   -2.008517   -0.514994
      5          9           0       -2.010386   -2.505136   -1.773336
      6          9           0       -3.295424   -1.369088   -0.477198
      7          6           0       -2.150447   -3.141513    0.546818
      8          9           0       -1.969428   -2.533695    1.778567
      9          8           0       -3.460283   -3.715732    0.702588
     10          6           0       -3.896964   -4.491195   -0.384739
     11          9           0       -3.941619   -3.752409   -1.499890
     12          9           0       -5.136715   -4.939057   -0.114740
     13          9           0       -3.088775   -5.544724   -0.560244
     14          6           0       -1.015805   -4.150332    0.378583
     15          9           0       -0.918108   -4.637869   -0.871770
     16          9           0        0.177600   -3.615418    0.723140
     17          9           0       -1.201963   -5.208781    1.209699
     18          6           0       -1.315850    0.018721    0.673760
     19          7           0       -0.550976    1.203557    0.450331
     20          6           0       -0.904023    2.363336    1.259301
     21          9           0       -2.210425    2.205527    1.646662
     22          9           0       -0.207504    2.262583    2.429382
     23          6           0       -0.772875    3.806159    0.684500
     24          9           0        0.519381    4.116360    0.408176
     25          8           0       -1.178675    4.711592    1.726798
     26          6           0       -1.317231    6.034781    1.283238
     27          9           0       -1.305068    6.850007    2.353765
     28          9           0       -0.323534    6.386621    0.454459
     29          9           0       -2.502388    6.162269    0.662326
     30          6           0       -1.610806    3.824295   -0.598654
     31          9           0       -2.919242    3.590156   -0.345068
     32          9           0       -1.540295    5.012422   -1.240566
     33          9           0       -1.209969    2.888129   -1.490885
     34          6           0        0.756563    1.054577    0.063363
     35          8           0        1.588973    1.920499    0.297211
     36          7           0        1.073529   -0.112330   -0.600241
     37          6           0        2.461826   -0.270630   -1.023515
     38          9           0        2.816432    0.880298   -1.672865
     39          9           0        2.577026   -1.213010   -2.003972
     40          6           0        3.520688   -0.585879    0.073831
     41          9           0        3.590429    0.410093    1.004120
     42          8           0        4.866110   -0.806144   -0.378807
     43          6           0        5.375532    0.248881   -1.150605
     44          9           0        5.007538    1.442822   -0.663966
     45          9           0        6.720126    0.172039   -1.138595
     46          9           0        4.953490    0.112234   -2.418545
     47          6           0        3.067038   -1.852169    0.793212
     48          9           0        3.935473   -2.199461    1.776212
     49          9           0        1.862118   -1.681011    1.394176
     50          9           0        2.966594   -2.913036   -0.033160
     51          1           0       -1.021007   -0.404078    1.640419
     52          1           0       -2.378378    0.274074    0.685466
 ---------------------------------------------------------------------

 SCF Done:  E(UCAM-B3LYP) =  -3807.47681247     A.U. after   39 cycles

 Alpha  occ. eigenvalues --  -24.90259 -24.90019 -24.89427 -24.88680 -24.88662
 Alpha  occ. eigenvalues --  -24.88583 -24.88577 -24.87631 -24.87331 -24.87327
 Alpha  occ. eigenvalues --  -24.87105 -24.87012 -24.86846 -24.86670 -24.86425
 Alpha  occ. eigenvalues --  -24.86400 -24.86374 -24.86345 -24.85940 -24.85914
 Alpha  occ. eigenvalues --  -24.85760 -24.85729 -24.85648 -24.85276 -24.85210
 Alpha  occ. eigenvalues --  -24.85174 -24.85154 -19.40205 -19.37925 -19.35930
 Alpha  occ. eigenvalues --  -19.35585 -19.31327 -14.67271 -14.61239 -14.59081
 Alpha  occ. eigenvalues --  -10.63177 -10.61658 -10.61617 -10.61138 -10.60049
 Alpha  occ. eigenvalues --  -10.59153 -10.58902 -10.58709 -10.58096 -10.57496
 Alpha  occ. eigenvalues --  -10.55239 -10.53008 -10.52842 -10.52791 -10.48219
 Alpha  occ. eigenvalues --   -1.47393  -1.46099  -1.46016  -1.45965  -1.45681
 Alpha  occ. eigenvalues --   -1.45123  -1.44566  -1.43810  -1.43700  -1.41341
 Alpha  occ. eigenvalues --   -1.39122  -1.39007  -1.38940  -1.37882  -1.37295
 Alpha  occ. eigenvalues --   -1.37145  -1.36545  -1.36422  -1.36227  -1.36184
 Alpha  occ. eigenvalues --   -1.36108  -1.35588  -1.35542  -1.35461  -1.35403
 Alpha  occ. eigenvalues --   -1.34790  -1.34743  -1.33989  -1.27691  -1.25116
 Alpha  occ. eigenvalues --   -1.23633  -1.23289  -1.23014  -1.17550  -1.15983
 Alpha  occ. eigenvalues --   -0.99969  -0.98541  -0.97944  -0.95105  -0.93314
 Alpha  occ. eigenvalues --   -0.90996  -0.87581  -0.86539  -0.85885  -0.84576
 Alpha  occ. eigenvalues --   -0.83813  -0.82880  -0.81810  -0.80253  -0.79302
 Alpha  occ. eigenvalues --   -0.78574  -0.78024  -0.76978  -0.76674  -0.76133
 Alpha  occ. eigenvalues --   -0.75754  -0.75108  -0.74524  -0.74391  -0.74003
 Alpha  occ. eigenvalues --   -0.73707  -0.73517  -0.73196  -0.72982  -0.72758
 Alpha  occ. eigenvalues --   -0.72281  -0.71962  -0.71739  -0.71623  -0.71305
 Alpha  occ. eigenvalues --   -0.71119  -0.70900  -0.70482  -0.69940  -0.69451
 Alpha  occ. eigenvalues --   -0.69347  -0.68937  -0.68855  -0.68549  -0.67426
 Alpha  occ. eigenvalues --   -0.65264  -0.64180  -0.63306  -0.63140  -0.62671
 Alpha  occ. eigenvalues --   -0.62168  -0.61963  -0.61389  -0.61088  -0.60948
 Alpha  occ. eigenvalues --   -0.60616  -0.60592  -0.60292  -0.60114  -0.60035
 Alpha  occ. eigenvalues --   -0.59823  -0.59746  -0.59581  -0.59297  -0.59038
 Alpha  occ. eigenvalues --   -0.58921  -0.58551  -0.58375  -0.58347  -0.58051
 Alpha  occ. eigenvalues --   -0.57924  -0.57763  -0.57608  -0.57332  -0.57216
 Alpha  occ. eigenvalues --   -0.56796  -0.56725  -0.56610  -0.55833  -0.55749
 Alpha  occ. eigenvalues --   -0.55615  -0.55557  -0.55449  -0.55185  -0.54892
 Alpha  occ. eigenvalues --   -0.54799  -0.54454  -0.54440  -0.54259  -0.53969
 Alpha  occ. eigenvalues --   -0.53924  -0.53798  -0.53717  -0.53658  -0.53227
 Alpha  occ. eigenvalues --   -0.53108  -0.52918  -0.52808  -0.52758  -0.52522
 Alpha  occ. eigenvalues --   -0.52330  -0.51964  -0.51801  -0.51605  -0.51530
 Alpha  occ. eigenvalues --   -0.49332  -0.48945  -0.48470  -0.48200  -0.47339
 Alpha  occ. eigenvalues --   -0.46755  -0.45201  -0.44267
 Alpha virt. eigenvalues --   -0.09875  -0.02577  -0.01434  -0.00744   0.01064
 Alpha virt. eigenvalues --    0.02238   0.03101   0.05002   0.06594   0.07864
 Alpha virt. eigenvalues --    0.08937   0.09760   0.10508   0.10765   0.12287

  Beta  occ. eigenvalues --  -24.90227 -24.89985 -24.89420 -24.88679 -24.88638
  Beta  occ. eigenvalues --  -24.88582 -24.88533 -24.87627 -24.87326 -24.87322
  Beta  occ. eigenvalues --  -24.87105 -24.87011 -24.86845 -24.86661 -24.86422
  Beta  occ. eigenvalues --  -24.86401 -24.86373 -24.86343 -24.85940 -24.85907
  Beta  occ. eigenvalues --  -24.85759 -24.85729 -24.85648 -24.85275 -24.85210
  Beta  occ. eigenvalues --  -24.85174 -24.85154 -19.39053 -19.37901 -19.35930
  Beta  occ. eigenvalues --  -19.35583 -19.31211 -14.66319 -14.61278 -14.58881
  Beta  occ. eigenvalues --  -10.63178 -10.61658 -10.61616 -10.61183 -10.60046
  Beta  occ. eigenvalues --  -10.59153 -10.58902 -10.58710 -10.58106 -10.57718
  Beta  occ. eigenvalues --  -10.55213 -10.53044 -10.52845 -10.52785 -10.48207
  Beta  occ. eigenvalues --   -1.47348  -1.46086  -1.45978  -1.45918  -1.45676
  Beta  occ. eigenvalues --   -1.45118  -1.44562  -1.43769  -1.43683  -1.41321
  Beta  occ. eigenvalues --   -1.39115  -1.38929  -1.38923  -1.37855  -1.37292
  Beta  occ. eigenvalues --   -1.37130  -1.36488  -1.36406  -1.36225  -1.36171
  Beta  occ. eigenvalues --   -1.36092  -1.35586  -1.35540  -1.35460  -1.35402
  Beta  occ. eigenvalues --   -1.34789  -1.34741  -1.32582  -1.26976  -1.25064
  Beta  occ. eigenvalues --   -1.23310  -1.23011  -1.22016  -1.17290  -1.15210
  Beta  occ. eigenvalues --   -0.99850  -0.98378  -0.97831  -0.94755  -0.93080
  Beta  occ. eigenvalues --   -0.90866  -0.87414  -0.86491  -0.85843  -0.84459
  Beta  occ. eigenvalues --   -0.83803  -0.82467  -0.81619  -0.80173  -0.79242
  Beta  occ. eigenvalues --   -0.78344  -0.77798  -0.76842  -0.76603  -0.75897
  Beta  occ. eigenvalues --   -0.75693  -0.74871  -0.74456  -0.74236  -0.73825
  Beta  occ. eigenvalues --   -0.73641  -0.73315  -0.73098  -0.72745  -0.72535
  Beta  occ. eigenvalues --   -0.72164  -0.71946  -0.71686  -0.71589  -0.71247
  Beta  occ. eigenvalues --   -0.70979  -0.70752  -0.70255  -0.69796  -0.69380
  Beta  occ. eigenvalues --   -0.69202  -0.68838  -0.68712  -0.68029  -0.66296
  Beta  occ. eigenvalues --   -0.63912  -0.63797  -0.63221  -0.63070  -0.62572
  Beta  occ. eigenvalues --   -0.61820  -0.61696  -0.61314  -0.60973  -0.60796
  Beta  occ. eigenvalues --   -0.60502  -0.60311  -0.60190  -0.60094  -0.59938
  Beta  occ. eigenvalues --   -0.59760  -0.59688  -0.59416  -0.59248  -0.58976
  Beta  occ. eigenvalues --   -0.58752  -0.58433  -0.58310  -0.58088  -0.57951
  Beta  occ. eigenvalues --   -0.57842  -0.57718  -0.57591  -0.57162  -0.57123
  Beta  occ. eigenvalues --   -0.56698  -0.56583  -0.56479  -0.55792  -0.55683
  Beta  occ. eigenvalues --   -0.55572  -0.55512  -0.55306  -0.55134  -0.54829
  Beta  occ. eigenvalues --   -0.54750  -0.54435  -0.54404  -0.54220  -0.53912
  Beta  occ. eigenvalues --   -0.53819  -0.53721  -0.53616  -0.53341  -0.53204
  Beta  occ. eigenvalues --   -0.53093  -0.52800  -0.52737  -0.52676  -0.52116
  Beta  occ. eigenvalues --   -0.51951  -0.51693  -0.51566  -0.50097  -0.49259
  Beta  occ. eigenvalues --   -0.48872  -0.48247  -0.48072  -0.47272  -0.45902
  Beta  occ. eigenvalues --   -0.44463  -0.43073
  Beta virt. eigenvalues --   -0.30585  -0.08716  -0.02365  -0.01020  -0.00657
  Beta virt. eigenvalues --    0.01100   0.02290   0.03150   0.05086   0.06838
  Beta virt. eigenvalues --    0.07983   0.09341   0.09965   0.10740   0.11036

 Mulliken charges and spin densities:
               1          2
     1  O   -0.300197   0.439677
     2  C    0.904093  -0.126844
     3  N   -0.476431   0.432212
     4  C    0.753385  -0.022364
     5  F   -0.215880   0.007804
     6  F   -0.250388   0.008895
     7  C    0.434426   0.010622
     8  F   -0.265824   0.001685
     9  O   -0.473392   0.007958
    10  C    0.980832  -0.000303
    11  F   -0.228329   0.000375
    12  F   -0.227517   0.000120
    13  F   -0.227049   0.000136
    14  C    0.834711  -0.000506
    15  F   -0.230895   0.000924
    16  F   -0.244251   0.005812
    17  F   -0.243021   0.000775
    18  C    0.059852  -0.010305
    19  N   -0.577722   0.094198
    20  C    0.759561  -0.004846
    21  F   -0.264115   0.000100
    22  F   -0.245695   0.002630
    23  C    0.430134   0.002204
    24  F   -0.235399   0.001599
    25  O   -0.507525   0.000375
    26  C    1.001220   0.000174
    27  F   -0.233340   0.000087
    28  F   -0.238428   0.000064
    29  F   -0.242928   0.000031
    30  C    0.813352  -0.000066
    31  F   -0.239949  -0.000025
    32  F   -0.243192   0.000164
    33  F   -0.245839   0.002014
    34  C    0.874988  -0.022547
    35  O   -0.423207   0.045332
    36  N   -0.666927  -0.009758
    37  C    0.755378  -0.000288
    38  F   -0.245608   0.000334
    39  F   -0.231740   0.009607
    40  C    0.445740  -0.001211
    41  F   -0.245947   0.000487
    42  O   -0.502966  -0.000090
    43  C    1.004553   0.000001
    44  F   -0.238132   0.000005
    45  F   -0.234620   0.000002
    46  F   -0.242269   0.000098
    47  C    0.805378   0.000059
    48  F   -0.237778   0.000026
    49  F   -0.263690   0.000074
    50  F   -0.231679   0.000012
    51  H    0.288368   0.089543
    52  H    0.275897   0.032937
 Sum of Mulliken charges =   1.00000   1.00000

 Dipole moment (field-independent basis, Debye):
    X=             -5.0550    Y=             -3.3442    Z=              0.2308  Tot=              6.0654
 Quadrupole moment (field-independent basis, Debye-Ang):
   XX=           -243.5433   YY=           -243.2146   ZZ=           -254.7277
   XY=              4.4354   XZ=             -2.1924   YZ=              0.0462

 Normal termination of Gaussian 09 at Sun Mar  3 17:31:15 2024.
