 Gaussian 09, Revision D.01,
 Gaussian 09:  ES64L-G09RevD.01 24-Apr-2013

 ----------------------------------------------------------------------
 #p CAM-B3LYP/6-31G(d,p) SCRF=(PCM,Solvent=Generic,Read) NoSymm out=wfn
 ----------------------------------------------------------------------

 -----------------
 Title DIPEDA0_neu
 -----------------
 Symbolic Z-matrix:
 Charge =  0 Multiplicity = 1

                          Input orientation:
 ---------------------------------------------------------------------
 Center     Atomic      Atomic             Coordinates (Angstroms)
 Number     Number       Type             X           Y           Z
 ---------------------------------------------------------------------
      1          9           0        3.697594    1.792944   -2.434614
      2          6           0        4.087366    1.784242   -1.147443
      3          9           0        4.638110    2.987104   -0.878729
      4          6           0        5.023954    0.639789   -0.817398
      5          9           0        4.630642   -0.502439   -1.416773
      6          9           0        6.302012    0.852820   -1.179239
      7          6           0        4.820864    0.575129    0.660250
      8          9           0        5.420864    1.691759    1.200952
      9          6           0        5.395403   -0.646723    1.312706
     10          9           0        5.014258   -0.660963    2.622114
     11          6           0        6.917409   -0.646680    1.188191
     12          8           0        7.371802   -1.383104    0.150062
     13          8           0        7.712834   -0.046250    1.892651
     14          9           0        4.854823   -1.765543    0.762188
     15          6           0        3.306929    0.779633    0.766725
     16          9           0        3.062605    1.462846    1.920671
     17          6           0        2.400568   -0.465652    0.731511
     18          9           0        2.730000   -1.328297    1.727370
     19          6           0        0.922350   -0.047720    0.834448
     20          7           0        0.255221    0.005168   -0.382496
     21          6           0       -1.165871    0.306164   -0.459994
     22          6           0       -2.029762   -0.967276   -0.354036
     23          7           0       -3.495308   -0.778736   -0.354577
     24          6           0       -3.977462   -0.283612   -1.665221
     25          6           0       -4.284157    1.214591   -1.770199
     26          6           0       -5.165766   -1.121886   -2.152922
     27          6           0       -4.039983   -0.137410    0.868577
     28          6           0       -5.557409   -0.343665    1.006195
     29          6           0       -3.415113   -0.676994    2.168519
     30          8           0        0.372270    0.229261    1.898355
     31          9           0        2.615418   -1.141119   -0.434967
     32          8           0        2.935772    1.672385   -0.314946
     33          1           0        8.351303   -1.300559    0.190459
     34          1           0        0.683910   -0.451423   -1.178966
     35          1           0       -1.318980    0.797427   -1.427209
     36          1           0       -1.420937    1.020539    0.332528
     37          1           0       -1.766381   -1.631953   -1.188993
     38          1           0       -1.722378   -1.553071    0.518803
     39          1           0       -3.195364   -0.476579   -2.414003
     40          1           0       -4.504197    1.479365   -2.808778
     41          1           0       -5.149382    1.517518   -1.173080
     42          1           0       -3.431262    1.821543   -1.458436
     43          1           0       -6.076049   -0.950982   -1.575225
     44          1           0       -5.395196   -0.874618   -3.195280
     45          1           0       -4.933604   -2.191470   -2.116524
     46          1           0       -3.837815    0.938676    0.850430
     47          1           0       -6.122385    0.221719    0.263622
     48          1           0       -5.824565   -1.402147    0.914583
     49          1           0       -5.915690    0.003933    1.984258
     50          1           0       -3.497594   -1.766727    2.227384
     51          1           0       -3.919520   -0.258006    3.048299
     52          1           0       -2.362152   -0.397686    2.258195
 ---------------------------------------------------------------------

 SCF Done:  E(RCAM-B3LYP) =  -2029.83535440     A.U. after   13 cycles

 Alpha  occ. eigenvalues --  -24.84012 -24.83740 -24.83196 -24.82912 -24.82566
 Alpha  occ. eigenvalues --  -24.82455 -24.82437 -24.82069 -24.81761 -24.81624
 Alpha  occ. eigenvalues --  -19.31888 -19.30323 -19.25577 -19.22004 -14.45432
 Alpha  occ. eigenvalues --  -14.39229 -10.52844 -10.49229 -10.49146 -10.47789
 Alpha  occ. eigenvalues --  -10.47159 -10.44478 -10.42700 -10.39940 -10.30000
 Alpha  occ. eigenvalues --  -10.28714 -10.28474 -10.28372 -10.24632 -10.24047
 Alpha  occ. eigenvalues --  -10.23928 -10.23762  -1.41007  -1.38776  -1.38348
 Alpha  occ. eigenvalues --   -1.37317  -1.35715  -1.33744  -1.33116  -1.32125
 Alpha  occ. eigenvalues --   -1.31293  -1.31053  -1.22298  -1.19997  -1.13894
 Alpha  occ. eigenvalues --   -1.12442  -1.01971  -0.99245  -0.97720  -0.90785
 Alpha  occ. eigenvalues --   -0.88657  -0.86341  -0.85443  -0.83300  -0.79839
 Alpha  occ. eigenvalues --   -0.77900  -0.76536  -0.76096  -0.75430  -0.73729
 Alpha  occ. eigenvalues --   -0.72327  -0.71087  -0.70412  -0.69629  -0.68797
 Alpha  occ. eigenvalues --   -0.68054  -0.67347  -0.67040  -0.66357  -0.66045
 Alpha  occ. eigenvalues --   -0.65697  -0.65072  -0.63635  -0.62801  -0.62499
 Alpha  occ. eigenvalues --   -0.60923  -0.58622  -0.58013  -0.56825  -0.56651
 Alpha  occ. eigenvalues --   -0.56247  -0.55888  -0.55275  -0.54912  -0.54760
 Alpha  occ. eigenvalues --   -0.54293  -0.53983  -0.53875  -0.53572  -0.52948
 Alpha  occ. eigenvalues --   -0.52552  -0.52222  -0.52209  -0.51920  -0.51680
 Alpha  occ. eigenvalues --   -0.50853  -0.50647  -0.50471  -0.50214  -0.49691
 Alpha  occ. eigenvalues --   -0.49524  -0.49043  -0.48820  -0.48562  -0.48209
 Alpha  occ. eigenvalues --   -0.47326  -0.46271  -0.45725  -0.45601  -0.45338
 Alpha  occ. eigenvalues --   -0.44761  -0.44114  -0.43543  -0.43205  -0.42768
 Alpha  occ. eigenvalues --   -0.42097  -0.41272  -0.40704  -0.39830  -0.39591
 Alpha  occ. eigenvalues --   -0.37949  -0.37802  -0.37376  -0.34844  -0.33509
 Alpha  occ. eigenvalues --   -0.26118
 Alpha virt. eigenvalues --   -0.00181   0.01908   0.04755   0.08772   0.10432
 Alpha virt. eigenvalues --    0.11808   0.12124   0.13260   0.14034   0.14977
 Alpha virt. eigenvalues --    0.15468   0.16269   0.16435   0.17932   0.18591

 Mulliken charges:
               1
     1  F   -0.248357
     2  C    0.758412
     3  F   -0.246217
     4  C    0.548351
     5  F   -0.248226
     6  F   -0.255660
     7  C    0.136288
     8  F   -0.286683
     9  C    0.619935
    10  F   -0.272402
    11  C    0.517037
    12  O   -0.470881
    13  O   -0.437645
    14  F   -0.268800
    15  C    0.507216
    16  F   -0.263139
    17  C    0.583448
    18  F   -0.267522
    19  C    0.527693
    20  N   -0.537396
    21  C   -0.056083
    22  C   -0.055793
    23  N   -0.437055
    24  C    0.065729
    25  C   -0.322219
    26  C   -0.295970
    27  C    0.093317
    28  C   -0.316910
    29  C   -0.342487
    30  O   -0.499670
    31  F   -0.285876
    32  O   -0.513202
    33  H    0.362207
    34  H    0.286867
    35  H    0.119391
    36  H    0.146840
    37  H    0.095503
    38  H    0.120819
    39  H    0.091921
    40  H    0.105498
    41  H    0.109643
    42  H    0.103370
    43  H    0.103485
    44  H    0.089445
    45  H    0.104605
    46  H    0.078804
    47  H    0.100090
    48  H    0.112582
    49  H    0.100735
    50  H    0.110313
    51  H    0.105048
    52  H    0.123599
 Sum of Mulliken charges =   0.00000

 Dipole moment (field-independent basis, Debye):
    X=              0.2345    Y=             -1.3652    Z=             -4.6335  Tot=              4.8361
 Quadrupole moment (field-independent basis, Debye-Ang):
   XX=           -162.8358   YY=           -184.5909   ZZ=           -188.2786
   XY=            -14.9620   XZ=            -11.5822   YZ=             -2.4775

 Normal termination of Gaussian 09 at Mon Feb  3 21:41:48 2025.
