 Gaussian 09, Revision D.01,
 Gaussian 09:  ES64L-G09RevD.01 24-Apr-2013

 ----------------------------------------------------------------------
 #p CAM-B3LYP/6-31G(d,p) SCRF=(PCM,Solvent=Generic,Read) NoSymm out=wfn
 ----------------------------------------------------------------------

 ------------------
 Title A895623830_0
 ------------------
 Symbolic Z-matrix:
 Charge =  0 Multiplicity = 1

                          Input orientation:
 ---------------------------------------------------------------------
 Center     Atomic      Atomic             Coordinates (Angstroms)
 Number     Number       Type             X           Y           Z
 ---------------------------------------------------------------------
      1          8           0        1.819181   -3.099091    1.963041
      2          6           0        1.118346   -2.123174    1.720576
      3          7           0        0.068513   -1.827989    2.539361
      4          6           0       -0.946055   -0.969350    2.249783
      5          8           0       -1.969824   -0.974174    2.919015
      6          7           0       -0.746317   -0.158191    1.168688
      7          6           0       -1.639582    0.968941    0.969646
      8          9           0       -1.179822    1.651305   -0.130030
      9          9           0       -1.420619    1.837518    2.001779
     10          6           0       -3.172053    0.774945    0.768940
     11          9           0       -3.768247    0.313192    1.896679
     12          8           0       -3.729226    2.085635    0.549278
     13          6           0       -5.070602    2.052848    0.141381
     14          9           0       -5.611622    3.267493    0.349908
     15          9           0       -5.775643    1.138584    0.823543
     16          9           0       -5.118123    1.784718   -1.174772
     17          6           0       -3.326271   -0.225943   -0.381016
     18          9           0       -4.622033   -0.521308   -0.633339
     19          9           0       -2.803189    0.259179   -1.532215
     20          9           0       -2.710063   -1.405370   -0.139293
     21          6           0        0.596872   -0.022087    0.681126
     22          7           0        1.291060   -1.278030    0.651284
     23          6           0        2.553248   -1.422876   -0.078558
     24          9           0        2.624902   -2.713313   -0.498413
     25          9           0        3.569352   -1.237982    0.809544
     26          6           0        2.805185   -0.494098   -1.294256
     27          9           0        1.737168   -0.587345   -2.142672
     28          8           0        2.835549    0.867183   -0.827403
     29          6           0        3.255177    1.778077   -1.813059
     30          9           0        2.873578    3.009819   -1.429396
     31          9           0        4.592794    1.747125   -1.902348
     32          9           0        2.694752    1.499938   -2.998421
     33          6           0        4.083061   -1.014309   -1.975398
     34          9           0        5.163985   -0.883761   -1.174564
     35          9           0        4.352881   -0.319405   -3.107985
     36          9           0        4.001174   -2.308260   -2.349219
     37          1           0       -0.101413   -2.484301    3.288453
     38          1           0        0.530691    0.353782   -0.340176
     39          1           0        1.143239    0.680071    1.321170
 ---------------------------------------------------------------------

 SCF Done:  E(RCAM-B3LYP) =  -2682.52238510     A.U. after   13 cycles

 Alpha  occ. eigenvalues --  -24.84430 -24.84198 -24.84067 -24.84032 -24.83859
 Alpha  occ. eigenvalues --  -24.83682 -24.83643 -24.83582 -24.83488 -24.83486
 Alpha  occ. eigenvalues --  -24.83421 -24.83227 -24.83191 -24.83095 -24.82357
 Alpha  occ. eigenvalues --  -24.82266 -24.82253 -24.81892 -19.34036 -19.32720
 Alpha  occ. eigenvalues --  -19.22045 -19.21919 -14.49709 -14.49611 -14.48293
 Alpha  occ. eigenvalues --  -10.60280 -10.59448 -10.56084 -10.55610 -10.52577
 Alpha  occ. eigenvalues --  -10.52534 -10.49838 -10.49016 -10.43691 -10.43649
 Alpha  occ. eigenvalues --  -10.37681  -1.43913  -1.43179  -1.42208  -1.41948
 Alpha  occ. eigenvalues --   -1.38787  -1.38580  -1.36651  -1.35416  -1.34309
 Alpha  occ. eigenvalues --   -1.33899  -1.33413  -1.33318  -1.33241  -1.32893
 Alpha  occ. eigenvalues --   -1.32605  -1.32495  -1.31534  -1.31458  -1.21402
 Alpha  occ. eigenvalues --   -1.20195  -1.19952  -1.15956  -1.10503  -1.05391
 Alpha  occ. eigenvalues --   -1.04536  -0.93872  -0.93346  -0.85342  -0.84104
 Alpha  occ. eigenvalues --   -0.82869  -0.82100  -0.81712  -0.77562  -0.77270
 Alpha  occ. eigenvalues --   -0.74936  -0.73901  -0.73427  -0.72492  -0.71407
 Alpha  occ. eigenvalues --   -0.71326  -0.70907  -0.70308  -0.69947  -0.69615
 Alpha  occ. eigenvalues --   -0.69240  -0.68932  -0.68631  -0.68003  -0.67193
 Alpha  occ. eigenvalues --   -0.66466  -0.66074  -0.65457  -0.64759  -0.63221
 Alpha  occ. eigenvalues --   -0.62681  -0.61805  -0.60493  -0.60116  -0.58675
 Alpha  occ. eigenvalues --   -0.57962  -0.57646  -0.57565  -0.57053  -0.56804
 Alpha  occ. eigenvalues --   -0.56706  -0.55956  -0.55928  -0.55840  -0.55548
 Alpha  occ. eigenvalues --   -0.55243  -0.54497  -0.54433  -0.54107  -0.53768
 Alpha  occ. eigenvalues --   -0.53511  -0.53451  -0.53124  -0.52824  -0.52614
 Alpha  occ. eigenvalues --   -0.52508  -0.52331  -0.52002  -0.51757  -0.51361
 Alpha  occ. eigenvalues --   -0.51114  -0.51026  -0.50915  -0.50749  -0.50533
 Alpha  occ. eigenvalues --   -0.50242  -0.50119  -0.49799  -0.49638  -0.49308
 Alpha  occ. eigenvalues --   -0.48969  -0.48734  -0.48179  -0.46613  -0.45590
 Alpha  occ. eigenvalues --   -0.44745  -0.44125  -0.38049  -0.37991  -0.36913
 Alpha  occ. eigenvalues --   -0.35658  -0.35274
 Alpha virt. eigenvalues --    0.02197   0.05788   0.06351   0.07328   0.08622
 Alpha virt. eigenvalues --    0.09911   0.12696   0.14125   0.15761   0.16346
 Alpha virt. eigenvalues --    0.17140   0.17964   0.18407   0.19014   0.19993

 Mulliken charges:
               1
     1  O   -0.518781
     2  C    0.803017
     3  N   -0.616357
     4  C    0.785733
     5  O   -0.515637
     6  N   -0.582625
     7  C    0.753050
     8  F   -0.281588
     9  F   -0.267276
    10  C    0.423085
    11  F   -0.241474
    12  O   -0.515482
    13  C    0.995096
    14  F   -0.239575
    15  F   -0.241673
    16  F   -0.246632
    17  C    0.810119
    18  F   -0.252851
    19  F   -0.246996
    20  F   -0.240008
    21  C    0.131034
    22  N   -0.603160
    23  C    0.791990
    24  F   -0.263680
    25  F   -0.262670
    26  C    0.377864
    27  F   -0.264389
    28  O   -0.518010
    29  C    1.002741
    30  F   -0.237549
    31  F   -0.239653
    32  F   -0.240039
    33  C    0.821581
    34  F   -0.241767
    35  F   -0.256792
    36  F   -0.238745
    37  H    0.329989
    38  H    0.177204
    39  H    0.170904
 Sum of Mulliken charges =   0.00000

 Dipole moment (field-independent basis, Debye):
    X=              0.8549    Y=              2.1090    Z=             -1.3674  Tot=              2.6549
 Quadrupole moment (field-independent basis, Debye-Ang):
   XX=           -201.0438   YY=           -198.8179   ZZ=           -191.7602
   XY=              9.4952   XZ=              2.6915   YZ=              1.2503

 Normal termination of Gaussian 09 at Sun Mar  3 18:01:48 2024.
