 Gaussian 09, Revision D.01,
 Gaussian 09:  ES64L-G09RevD.01 24-Apr-2013

 ----------------------------------------------------------------------
 #p CAM-B3LYP/6-31G(d,p) SCRF=(PCM,Solvent=Generic,Read) NoSymm out=wfn
 ----------------------------------------------------------------------

 -------------------
 Title A895623830_p1
 -------------------
 Symbolic Z-matrix:
 Charge =  1 Multiplicity = 2

                          Input orientation:
 ---------------------------------------------------------------------
 Center     Atomic      Atomic             Coordinates (Angstroms)
 Number     Number       Type             X           Y           Z
 ---------------------------------------------------------------------
      1          8           0        1.819181   -3.099091    1.963041
      2          6           0        1.118346   -2.123174    1.720576
      3          7           0        0.068513   -1.827989    2.539361
      4          6           0       -0.946055   -0.969350    2.249783
      5          8           0       -1.969824   -0.974174    2.919015
      6          7           0       -0.746317   -0.158191    1.168688
      7          6           0       -1.639582    0.968941    0.969646
      8          9           0       -1.179822    1.651305   -0.130030
      9          9           0       -1.420619    1.837518    2.001779
     10          6           0       -3.172053    0.774945    0.768940
     11          9           0       -3.768247    0.313192    1.896679
     12          8           0       -3.729226    2.085635    0.549278
     13          6           0       -5.070602    2.052848    0.141381
     14          9           0       -5.611622    3.267493    0.349908
     15          9           0       -5.775643    1.138584    0.823543
     16          9           0       -5.118123    1.784718   -1.174772
     17          6           0       -3.326271   -0.225943   -0.381016
     18          9           0       -4.622033   -0.521308   -0.633339
     19          9           0       -2.803189    0.259179   -1.532215
     20          9           0       -2.710063   -1.405370   -0.139293
     21          6           0        0.596872   -0.022087    0.681126
     22          7           0        1.291060   -1.278030    0.651284
     23          6           0        2.553248   -1.422876   -0.078558
     24          9           0        2.624902   -2.713313   -0.498413
     25          9           0        3.569352   -1.237982    0.809544
     26          6           0        2.805185   -0.494098   -1.294256
     27          9           0        1.737168   -0.587345   -2.142672
     28          8           0        2.835549    0.867183   -0.827403
     29          6           0        3.255177    1.778077   -1.813059
     30          9           0        2.873578    3.009819   -1.429396
     31          9           0        4.592794    1.747125   -1.902348
     32          9           0        2.694752    1.499938   -2.998421
     33          6           0        4.083061   -1.014309   -1.975398
     34          9           0        5.163985   -0.883761   -1.174564
     35          9           0        4.352881   -0.319405   -3.107985
     36          9           0        4.001174   -2.308260   -2.349219
     37          1           0       -0.101413   -2.484301    3.288453
     38          1           0        0.530691    0.353782   -0.340176
     39          1           0        1.143239    0.680071    1.321170
 ---------------------------------------------------------------------

 SCF Done:  E(UCAM-B3LYP) =  -2682.19608699     A.U. after   83 cycles

 Alpha  occ. eigenvalues --  -24.89266 -24.89001 -24.88025 -24.87269 -24.86732
 Alpha  occ. eigenvalues --  -24.86722 -24.86469 -24.86445 -24.86278 -24.86263
 Alpha  occ. eigenvalues --  -24.85894 -24.85844 -24.85614 -24.85370 -24.85353
 Alpha  occ. eigenvalues --  -24.85327 -24.84992 -24.84849 -19.45685 -19.37482
 Alpha  occ. eigenvalues --  -19.35042 -19.30990 -14.61765 -14.59339 -14.56145
 Alpha  occ. eigenvalues --  -10.62837 -10.61266 -10.59425 -10.59169 -10.58190
 Alpha  occ. eigenvalues --  -10.57305 -10.56745 -10.54246 -10.52060 -10.51563
 Alpha  occ. eigenvalues --  -10.44823  -1.46487  -1.45610  -1.45214  -1.44422
 Alpha  occ. eigenvalues --   -1.44168  -1.42496  -1.40532  -1.38448  -1.38386
 Alpha  occ. eigenvalues --   -1.36600  -1.36373  -1.36158  -1.35784  -1.35745
 Alpha  occ. eigenvalues --   -1.35284  -1.35176  -1.35166  -1.34937  -1.34410
 Alpha  occ. eigenvalues --   -1.26927  -1.24823  -1.22456  -1.21216  -1.14988
 Alpha  occ. eigenvalues --   -1.13704  -0.98593  -0.97055  -0.92701  -0.91061
 Alpha  occ. eigenvalues --   -0.89121  -0.85754  -0.85190  -0.83520  -0.80955
 Alpha  occ. eigenvalues --   -0.79790  -0.78742  -0.77622  -0.76381  -0.75648
 Alpha  occ. eigenvalues --   -0.75197  -0.74395  -0.73780  -0.73517  -0.72969
 Alpha  occ. eigenvalues --   -0.72724  -0.72319  -0.71706  -0.71484  -0.71225
 Alpha  occ. eigenvalues --   -0.70989  -0.70771  -0.70344  -0.70066  -0.69670
 Alpha  occ. eigenvalues --   -0.68975  -0.68419  -0.68183  -0.65900  -0.64944
 Alpha  occ. eigenvalues --   -0.63904  -0.62787  -0.62144  -0.61431  -0.60875
 Alpha  occ. eigenvalues --   -0.60592  -0.59972  -0.59690  -0.59487  -0.59309
 Alpha  occ. eigenvalues --   -0.59134  -0.58981  -0.58618  -0.58164  -0.58023
 Alpha  occ. eigenvalues --   -0.57923  -0.57553  -0.57344  -0.57174  -0.57063
 Alpha  occ. eigenvalues --   -0.56360  -0.56208  -0.55943  -0.55454  -0.55218
 Alpha  occ. eigenvalues --   -0.55159  -0.54806  -0.54357  -0.54063  -0.53834
 Alpha  occ. eigenvalues --   -0.53589  -0.53349  -0.53285  -0.52701  -0.52583
 Alpha  occ. eigenvalues --   -0.52386  -0.51862  -0.51525  -0.51240  -0.50753
 Alpha  occ. eigenvalues --   -0.50203  -0.48519  -0.48239  -0.46884  -0.46671
 Alpha  occ. eigenvalues --   -0.44520  -0.42968
 Alpha virt. eigenvalues --   -0.09048   0.00341   0.01612   0.01965   0.02693
 Alpha virt. eigenvalues --    0.05419   0.07337   0.08368   0.10319   0.10801
 Alpha virt. eigenvalues --    0.12221   0.13077   0.13558   0.14092   0.15412

  Beta  occ. eigenvalues --  -24.89214 -24.88968 -24.88025 -24.87265 -24.86732
  Beta  occ. eigenvalues --  -24.86722 -24.86469 -24.86443 -24.86278 -24.86263
  Beta  occ. eigenvalues --  -24.85894 -24.85843 -24.85615 -24.85370 -24.85342
  Beta  occ. eigenvalues --  -24.85327 -24.84991 -24.84849 -19.43705 -19.37481
  Beta  occ. eigenvalues --  -19.35042 -19.30665 -14.61434 -14.59180 -14.56152
  Beta  occ. eigenvalues --  -10.62837 -10.61266 -10.59442 -10.59168 -10.58190
  Beta  occ. eigenvalues --  -10.57501 -10.56746 -10.54235 -10.52061 -10.51607
  Beta  occ. eigenvalues --  -10.44821  -1.46470  -1.45555  -1.45213  -1.44385
  Beta  occ. eigenvalues --   -1.44168  -1.42493  -1.40528  -1.38367  -1.38359
  Beta  occ. eigenvalues --   -1.36599  -1.36164  -1.35780  -1.35746  -1.35283
  Beta  occ. eigenvalues --   -1.35175  -1.35168  -1.34936  -1.34410  -1.33053
  Beta  occ. eigenvalues --   -1.26124  -1.24817  -1.22451  -1.20174  -1.14328
  Beta  occ. eigenvalues --   -1.13329  -0.98513  -0.96984  -0.92406  -0.90729
  Beta  occ. eigenvalues --   -0.88748  -0.85708  -0.85140  -0.83147  -0.80852
  Beta  occ. eigenvalues --   -0.79407  -0.78555  -0.77531  -0.76289  -0.75600
  Beta  occ. eigenvalues --   -0.75064  -0.74309  -0.73702  -0.73226  -0.72814
  Beta  occ. eigenvalues --   -0.72667  -0.71715  -0.71605  -0.71255  -0.70970
  Beta  occ. eigenvalues --   -0.70785  -0.70364  -0.70265  -0.69741  -0.69367
  Beta  occ. eigenvalues --   -0.68754  -0.68139  -0.68016  -0.65158  -0.64074
  Beta  occ. eigenvalues --   -0.62904  -0.62683  -0.61805  -0.61077  -0.60607
  Beta  occ. eigenvalues --   -0.59990  -0.59765  -0.59554  -0.59297  -0.59091
  Beta  occ. eigenvalues --   -0.59001  -0.58672  -0.58591  -0.58096  -0.57876
  Beta  occ. eigenvalues --   -0.57662  -0.57237  -0.57154  -0.56975  -0.56588
  Beta  occ. eigenvalues --   -0.56189  -0.56023  -0.55480  -0.55217  -0.55128
  Beta  occ. eigenvalues --   -0.54765  -0.54332  -0.54057  -0.53855  -0.53545
  Beta  occ. eigenvalues --   -0.53347  -0.53288  -0.52766  -0.52581  -0.52364
  Beta  occ. eigenvalues --   -0.51845  -0.51426  -0.51231  -0.50708  -0.49876
  Beta  occ. eigenvalues --   -0.48505  -0.48241  -0.46706  -0.45143  -0.43048
  Beta  occ. eigenvalues --   -0.42682
  Beta virt. eigenvalues --   -0.29734  -0.08095   0.00532   0.01713   0.02005
  Beta virt. eigenvalues --    0.02767   0.05444   0.07400   0.08481   0.10723
  Beta virt. eigenvalues --    0.10864   0.12294   0.13157   0.13611   0.14122

 Mulliken charges and spin densities:
               1          2
     1  O   -0.181776   0.753715
     2  C    0.933139  -0.103092
     3  N   -0.602742   0.068096
     4  C    0.842356  -0.030630
     5  O   -0.421859   0.125007
     6  N   -0.583856   0.000498
     7  C    0.757627  -0.001469
     8  F   -0.270052   0.000945
     9  F   -0.254196  -0.000334
    10  C    0.424367  -0.000170
    11  F   -0.238311   0.002429
    12  O   -0.509856   0.000167
    13  C    0.999588  -0.000005
    14  F   -0.235210   0.000005
    15  F   -0.239836   0.000040
    16  F   -0.243799   0.000004
    17  C    0.813983   0.000013
    18  F   -0.245886   0.000002
    19  F   -0.242369  -0.000003
    20  F   -0.244251   0.000000
    21  C    0.112108  -0.004523
    22  N   -0.556335   0.149719
    23  C    0.787290  -0.010301
    24  F   -0.239274   0.012640
    25  F   -0.234906   0.009090
    26  C    0.379102   0.003643
    27  F   -0.252454  -0.000030
    28  O   -0.518355   0.000148
    29  C    1.009891   0.000103
    30  F   -0.231741   0.000024
    31  F   -0.233867   0.000041
    32  F   -0.235087  -0.000003
    33  C    0.832242   0.000033
    34  F   -0.235961  -0.000003
    35  F   -0.246579   0.000286
    36  F   -0.233982   0.000403
    37  H    0.380919  -0.002403
    38  H    0.226930   0.011157
    39  H    0.232998   0.014760
 Sum of Mulliken charges =   1.00000   1.00000

 Dipole moment (field-independent basis, Debye):
    X=              5.1921    Y=             -6.2516    Z=              5.8364  Tot=             10.0052
 Quadrupole moment (field-independent basis, Debye-Ang):
   XX=           -178.1805   YY=           -170.0228   ZZ=           -169.5442
   XY=             -4.0561   XZ=              4.9343   YZ=            -16.0617

 Normal termination of Gaussian 09 at Sun Mar  3 18:06:15 2024.
