 Gaussian 09, Revision D.01,
 Gaussian 09:  ES64L-G09RevD.01 24-Apr-2013

 ----------------------------------------------------------------------
 #p CAM-B3LYP/6-31G(d,p) SCRF=(PCM,Solvent=Generic,Read) NoSymm out=wfn
 ----------------------------------------------------------------------

 -------------------
 Title A1386248940_0
 -------------------
 Symbolic Z-matrix:
 Charge =  0 Multiplicity = 1

                          Input orientation:
 ---------------------------------------------------------------------
 Center     Atomic      Atomic             Coordinates (Angstroms)
 Number     Number       Type             X           Y           Z
 ---------------------------------------------------------------------
      1          6           0        3.994620   -3.713866   -0.496772
      2          8           0        3.068866   -2.732845   -0.051030
      3          6           0        2.542902   -1.981123   -1.143399
      4          7           0        1.602550   -1.028193   -0.596884
      5          6           0        2.076430    0.211071   -0.238686
      6          8           0        3.251459    0.540945   -0.409269
      7          7           0        1.149969    1.062119    0.317295
      8          6           0        1.570039    2.413525    0.617123
      9          8           0        1.290352    3.210900   -0.531854
     10          6           0        1.667118    4.565115   -0.325859
     11          6           0       -0.160127    0.719836    0.557335
     12          8           0       -0.931565    1.521181    1.077927
     13          7           0       -0.553999   -0.537669    0.192140
     14          6           0       -1.921481   -1.021907    0.369542
     15          9           0       -2.432200   -1.300650   -0.866560
     16          9           0       -1.815110   -2.232884    1.001324
     17          6           0       -3.000970   -0.213558    1.148914
     18          9           0       -2.521911    0.022205    2.422258
     19          8           0       -3.411265    1.080327    0.685231
     20          6           0       -3.613811    1.182966   -0.696071
     21          9           0       -2.446713    1.034205   -1.345073
     22          9           0       -4.486811    0.256926   -1.111900
     23          9           0       -4.111659    2.401114   -0.974304
     24          6           0       -4.207571   -1.156005    1.315976
     25          9           0       -4.656371   -1.675672    0.155166
     26          9           0       -3.935172   -2.200266    2.133955
     27          9           0       -5.255468   -0.497971    1.878070
     28          6           0        0.289100   -1.415942   -0.460314
     29          8           0       -0.107900   -2.487719   -0.920768
     30          1           0        4.842055   -3.240341   -1.001855
     31          1           0        4.367702   -4.256785    0.375756
     32          1           0        3.505280   -4.426268   -1.167970
     33          1           0        3.358666   -1.468241   -1.665398
     34          1           0        2.048053   -2.654363   -1.852389
     35          1           0        2.642007    2.449831    0.841503
     36          1           0        1.021864    2.804306    1.482072
     37          1           0        1.106200    4.996594    0.508809
     38          1           0        1.432520    5.129418   -1.232376
     39          1           0        2.742349    4.639685   -0.136701
 ---------------------------------------------------------------------

 SCF Done:  E(RCAM-B3LYP) =  -1938.75252771     A.U. after   13 cycles

 Alpha  occ. eigenvalues --  -24.83750 -24.83597 -24.83457 -24.82687 -24.82605
 Alpha  occ. eigenvalues --  -24.82543 -24.82543 -24.82325 -24.82319 -19.32415
 Alpha  occ. eigenvalues --  -19.23658 -19.23657 -19.23624 -19.23507 -19.23161
 Alpha  occ. eigenvalues --  -14.52694 -14.50328 -14.50295 -10.59505 -10.54743
 Alpha  occ. eigenvalues --  -10.53440 -10.49288 -10.45606 -10.45601 -10.44605
 Alpha  occ. eigenvalues --  -10.36250 -10.36230 -10.30609 -10.30606  -1.43245
 Alpha  occ. eigenvalues --   -1.41240  -1.38691  -1.34668  -1.33873  -1.33353
 Alpha  occ. eigenvalues --   -1.32142  -1.31647  -1.31277  -1.22389  -1.20192
 Alpha  occ. eigenvalues --   -1.17570  -1.16990  -1.13130  -1.12747  -1.09061
 Alpha  occ. eigenvalues --   -1.06512  -1.04880  -0.92731  -0.86141  -0.83521
 Alpha  occ. eigenvalues --   -0.83364  -0.81771  -0.78864  -0.77700  -0.75894
 Alpha  occ. eigenvalues --   -0.74609  -0.74296  -0.72572  -0.72288  -0.70789
 Alpha  occ. eigenvalues --   -0.70413  -0.69179  -0.68887  -0.67881  -0.67041
 Alpha  occ. eigenvalues --   -0.66577  -0.63653  -0.62283  -0.61816  -0.59101
 Alpha  occ. eigenvalues --   -0.58469  -0.57798  -0.57449  -0.57074  -0.56631
 Alpha  occ. eigenvalues --   -0.56339  -0.56108  -0.55710  -0.55552  -0.55381
 Alpha  occ. eigenvalues --   -0.54867  -0.54460  -0.53650  -0.53425  -0.53213
 Alpha  occ. eigenvalues --   -0.52875  -0.52520  -0.52262  -0.51239  -0.50899
 Alpha  occ. eigenvalues --   -0.50613  -0.50232  -0.50127  -0.49584  -0.49150
 Alpha  occ. eigenvalues --   -0.49106  -0.48645  -0.48547  -0.47979  -0.47872
 Alpha  occ. eigenvalues --   -0.47237  -0.47178  -0.42883  -0.40825  -0.40721
 Alpha  occ. eigenvalues --   -0.39437  -0.38892  -0.38770  -0.37246  -0.37142
 Alpha  occ. eigenvalues --   -0.35660  -0.33490  -0.33240
 Alpha virt. eigenvalues --    0.01172   0.01613   0.06302   0.07768   0.10965
 Alpha virt. eigenvalues --    0.13611   0.14952   0.16748   0.16946   0.17677
 Alpha virt. eigenvalues --    0.18514   0.19054   0.19229   0.19787   0.19940

 Mulliken charges:
               1
     1  C   -0.081279
     2  O   -0.500881
     3  C    0.209526
     4  N   -0.601345
     5  C    0.848800
     6  O   -0.515809
     7  N   -0.596715
     8  C    0.212762
     9  O   -0.501045
    10  C   -0.081203
    11  C    0.850608
    12  O   -0.508515
    13  N   -0.658281
    14  C    0.799315
    15  F   -0.267392
    16  F   -0.269592
    17  C    0.434545
    18  F   -0.278475
    19  O   -0.487443
    20  C    0.988120
    21  F   -0.249158
    22  F   -0.239989
    23  F   -0.238090
    24  C    0.803650
    25  F   -0.239229
    26  F   -0.247602
    27  F   -0.255887
    28  C    0.867730
    29  O   -0.502398
    30  H    0.113558
    31  H    0.133934
    32  H    0.114410
    33  H    0.145369
    34  H    0.145702
    35  H    0.146830
    36  H    0.143682
    37  H    0.114387
    38  H    0.133851
    39  H    0.113549
 Sum of Mulliken charges =   0.00000

 Dipole moment (field-independent basis, Debye):
    X=              3.8412    Y=              1.4315    Z=             -0.7495  Tot=              4.1672
 Quadrupole moment (field-independent basis, Debye-Ang):
   XX=           -160.9890   YY=           -147.7770   ZZ=           -156.7785
   XY=             -5.8346   XZ=              0.9092   YZ=              4.2400

 Normal termination of Gaussian 09 at Sun Mar  3 17:41:37 2024.
