 Gaussian 09, Revision D.01,
 Gaussian 09:  ES64L-G09RevD.01 24-Apr-2013

 ----------------------------------------------------------------------
 #p CAM-B3LYP/6-31G(d,p) SCRF=(PCM,Solvent=Generic,Read) NoSymm out=wfn
 ----------------------------------------------------------------------

 --------------------
 Title A1386248940_p1
 --------------------
 Symbolic Z-matrix:
 Charge =  1 Multiplicity = 2

                          Input orientation:
 ---------------------------------------------------------------------
 Center     Atomic      Atomic             Coordinates (Angstroms)
 Number     Number       Type             X           Y           Z
 ---------------------------------------------------------------------
      1          6           0        3.994620   -3.713866   -0.496772
      2          8           0        3.068866   -2.732845   -0.051030
      3          6           0        2.542902   -1.981123   -1.143399
      4          7           0        1.602550   -1.028193   -0.596884
      5          6           0        2.076430    0.211071   -0.238686
      6          8           0        3.251459    0.540945   -0.409269
      7          7           0        1.149969    1.062119    0.317295
      8          6           0        1.570039    2.413525    0.617123
      9          8           0        1.290352    3.210900   -0.531854
     10          6           0        1.667118    4.565115   -0.325859
     11          6           0       -0.160127    0.719836    0.557335
     12          8           0       -0.931565    1.521181    1.077927
     13          7           0       -0.553999   -0.537669    0.192140
     14          6           0       -1.921481   -1.021907    0.369542
     15          9           0       -2.432200   -1.300650   -0.866560
     16          9           0       -1.815110   -2.232884    1.001324
     17          6           0       -3.000970   -0.213558    1.148914
     18          9           0       -2.521911    0.022205    2.422258
     19          8           0       -3.411265    1.080327    0.685231
     20          6           0       -3.613811    1.182966   -0.696071
     21          9           0       -2.446713    1.034205   -1.345073
     22          9           0       -4.486811    0.256926   -1.111900
     23          9           0       -4.111659    2.401114   -0.974304
     24          6           0       -4.207571   -1.156005    1.315976
     25          9           0       -4.656371   -1.675672    0.155166
     26          9           0       -3.935172   -2.200266    2.133955
     27          9           0       -5.255468   -0.497971    1.878070
     28          6           0        0.289100   -1.415942   -0.460314
     29          8           0       -0.107900   -2.487719   -0.920768
     30          1           0        4.842055   -3.240341   -1.001855
     31          1           0        4.367702   -4.256785    0.375756
     32          1           0        3.505280   -4.426268   -1.167970
     33          1           0        3.358666   -1.468241   -1.665398
     34          1           0        2.048053   -2.654363   -1.852389
     35          1           0        2.642007    2.449831    0.841503
     36          1           0        1.021864    2.804306    1.482072
     37          1           0        1.106200    4.996594    0.508809
     38          1           0        1.432520    5.129418   -1.232376
     39          1           0        2.742349    4.639685   -0.136701
 ---------------------------------------------------------------------

 SCF Done:  E(UCAM-B3LYP) =  -1938.44383989     A.U. after   31 cycles

 Alpha  occ. eigenvalues --  -24.85855 -24.85307 -24.85214 -24.85191 -24.85059
 Alpha  occ. eigenvalues --  -24.84633 -24.84168 -24.83892 -24.83817 -19.37394
 Alpha  occ. eigenvalues --  -19.36916 -19.34461 -19.29452 -19.28146 -19.27996
 Alpha  occ. eigenvalues --  -14.56571 -14.55707 -14.55694 -10.61390 -10.56425
 Alpha  occ. eigenvalues --  -10.56151 -10.51418 -10.50105 -10.49965 -10.49938
 Alpha  occ. eigenvalues --  -10.43660 -10.43465 -10.37006 -10.36798  -1.45114
 Alpha  occ. eigenvalues --   -1.42906  -1.41098  -1.36742  -1.35793  -1.35183
 Alpha  occ. eigenvalues --   -1.34280  -1.33293  -1.32990  -1.27517  -1.24741
 Alpha  occ. eigenvalues --   -1.23776  -1.22318  -1.21961  -1.21313  -1.13662
 Alpha  occ. eigenvalues --   -1.11555  -1.10720  -0.95059  -0.91950  -0.89526
 Alpha  occ. eigenvalues --   -0.87830  -0.83939  -0.83785  -0.82879  -0.81255
 Alpha  occ. eigenvalues --   -0.79732  -0.79072  -0.77235  -0.75311  -0.72870
 Alpha  occ. eigenvalues --   -0.72428  -0.72199  -0.71078  -0.70184  -0.69480
 Alpha  occ. eigenvalues --   -0.69077  -0.67706  -0.67402  -0.65915  -0.65713
 Alpha  occ. eigenvalues --   -0.65107  -0.64666  -0.63882  -0.62689  -0.61040
 Alpha  occ. eigenvalues --   -0.60405  -0.59376  -0.59018  -0.58448  -0.58205
 Alpha  occ. eigenvalues --   -0.57979  -0.57413  -0.57175  -0.56988  -0.56519
 Alpha  occ. eigenvalues --   -0.56117  -0.56000  -0.55626  -0.55542  -0.54935
 Alpha  occ. eigenvalues --   -0.54583  -0.54027  -0.53931  -0.53786  -0.52897
 Alpha  occ. eigenvalues --   -0.52182  -0.51978  -0.51560  -0.51213  -0.50334
 Alpha  occ. eigenvalues --   -0.49884  -0.49796  -0.49126  -0.48863  -0.45572
 Alpha  occ. eigenvalues --   -0.45322  -0.44977  -0.44292  -0.43457  -0.43036
 Alpha  occ. eigenvalues --   -0.42449  -0.42197  -0.40237
 Alpha virt. eigenvalues --   -0.03429  -0.02877   0.03338   0.04970   0.06449
 Alpha virt. eigenvalues --    0.08649   0.10562   0.11919   0.12158   0.13054
 Alpha virt. eigenvalues --    0.13241   0.13793   0.14851   0.15291   0.15770

  Beta  occ. eigenvalues --  -24.85855 -24.85307 -24.85213 -24.85191 -24.85058
  Beta  occ. eigenvalues --  -24.84633 -24.84168 -24.83892 -24.83817 -19.36407
  Beta  occ. eigenvalues --  -19.35968 -19.34459 -19.29251 -19.28091 -19.27949
  Beta  occ. eigenvalues --  -14.56566 -14.55707 -14.55693 -10.61390 -10.56425
  Beta  occ. eigenvalues --  -10.56151 -10.51418 -10.50122 -10.49970 -10.49944
  Beta  occ. eigenvalues --  -10.43650 -10.43454 -10.37012 -10.36804  -1.45114
  Beta  occ. eigenvalues --   -1.42906  -1.41096  -1.36741  -1.35793  -1.35182
  Beta  occ. eigenvalues --   -1.34279  -1.33293  -1.32990  -1.27288  -1.23290
  Beta  occ. eigenvalues --   -1.22561  -1.22147  -1.21316  -1.20827  -1.13508
  Beta  occ. eigenvalues --   -1.11408  -1.10533  -0.95043  -0.91712  -0.89300
  Beta  occ. eigenvalues --   -0.87775  -0.83824  -0.83613  -0.82582  -0.80892
  Beta  occ. eigenvalues --   -0.79359  -0.78579  -0.77171  -0.75219  -0.72848
  Beta  occ. eigenvalues --   -0.72403  -0.72138  -0.71061  -0.70154  -0.69454
  Beta  occ. eigenvalues --   -0.69000  -0.67494  -0.67197  -0.65787  -0.65156
  Beta  occ. eigenvalues --   -0.64786  -0.62488  -0.62384  -0.61548  -0.61011
  Beta  occ. eigenvalues --   -0.60258  -0.59365  -0.58979  -0.58240  -0.57970
  Beta  occ. eigenvalues --   -0.57811  -0.57295  -0.57128  -0.56913  -0.56266
  Beta  occ. eigenvalues --   -0.56001  -0.55842  -0.55406  -0.55153  -0.54860
  Beta  occ. eigenvalues --   -0.54549  -0.53954  -0.53137  -0.52922  -0.52872
  Beta  occ. eigenvalues --   -0.52165  -0.51974  -0.51553  -0.51211  -0.50318
  Beta  occ. eigenvalues --   -0.49875  -0.49767  -0.48514  -0.48269  -0.45206
  Beta  occ. eigenvalues --   -0.43569  -0.43409  -0.42745  -0.42379  -0.41989
  Beta  occ. eigenvalues --   -0.39784  -0.34534
  Beta virt. eigenvalues --   -0.28485  -0.03335  -0.02824   0.03408   0.05008
  Beta virt. eigenvalues --    0.06574   0.08807   0.10652   0.12043   0.12452
  Beta virt. eigenvalues --    0.13313   0.13565   0.14186   0.15025   0.15472

 Mulliken charges and spin densities:
               1          2
     1  C   -0.127294  -0.011233
     2  O   -0.337100   0.346136
     3  C    0.167334  -0.005756
     4  N   -0.610570   0.003842
     5  C    0.887025  -0.010580
     6  O   -0.479907   0.072288
     7  N   -0.605654   0.003480
     8  C    0.168038  -0.006340
     9  O   -0.330809   0.360125
    10  C   -0.128933  -0.011521
    11  C    0.874229  -0.003091
    12  O   -0.485726   0.016608
    13  N   -0.662358   0.002183
    14  C    0.802547  -0.000193
    15  F   -0.261373   0.000219
    16  F   -0.264349   0.000199
    17  C    0.432997  -0.000049
    18  F   -0.276417   0.000129
    19  O   -0.486498   0.000489
    20  C    0.989923  -0.000034
    21  F   -0.252537  -0.000002
    22  F   -0.236554   0.000023
    23  F   -0.235222   0.000003
    24  C    0.808480  -0.000022
    25  F   -0.237275   0.000006
    26  F   -0.245695   0.000003
    27  F   -0.252213   0.000001
    28  C    0.891382  -0.003564
    29  O   -0.476111   0.019116
    30  H    0.181460   0.029556
    31  H    0.184728  -0.000464
    32  H    0.183826   0.029617
    33  H    0.210763   0.023411
    34  H    0.218414   0.029003
    35  H    0.214467   0.024571
    36  H    0.219833   0.030534
    37  H    0.186309   0.030759
    38  H    0.186470  -0.000490
    39  H    0.184371   0.031041
 Sum of Mulliken charges =   1.00000   1.00000

 Dipole moment (field-independent basis, Debye):
    X=             13.8386    Y=              2.7776    Z=             -2.0948  Tot=             14.2692
 Quadrupole moment (field-independent basis, Debye-Ang):
   XX=           -123.8820   YY=            -95.6630   ZZ=           -150.1745
   XY=            -13.6513   XZ=             -4.1087   YZ=              8.0229

 Normal termination of Gaussian 09 at Sun Mar  3 17:42:36 2024.
