 Gaussian 09, Revision D.01,
 Gaussian 09:  ES64L-G09RevD.01 24-Apr-2013

 ----------------------------------------------------------------------
 #p CAM-B3LYP/6-31G(d,p) SCRF=(PCM,Solvent=Generic,Read) NoSymm out=wfn
 ----------------------------------------------------------------------

 --------------------
 Title A1320413501_p1
 --------------------
 Symbolic Z-matrix:
 Charge =  1 Multiplicity = 2

                          Input orientation:
 ---------------------------------------------------------------------
 Center     Atomic      Atomic             Coordinates (Angstroms)
 Number     Number       Type             X           Y           Z
 ---------------------------------------------------------------------
      1          6           0       -0.818255    4.200336   -0.177601
      2          6           0       -0.020607    3.252169   -1.078694
      3          6           0       -0.493439    3.328928   -2.532589
      4          7           0        0.004443    1.857981   -0.581212
      5          6           0        1.203302    1.171308   -0.663532
      6          8           0        2.247371    1.723883   -1.002185
      7          7           0        1.163499   -0.165323   -0.351187
      8          6           0        2.403827   -0.920945   -0.474607
      9          9           0        2.133314   -2.257163   -0.579015
     10          9           0        2.923021   -0.634490   -1.715529
     11          6           0        3.531374   -0.716489    0.576076
     12          9           0        3.864784    0.605352    0.641775
     13          8           0        4.699736   -1.397569    0.085188
     14          6           0        5.760302   -1.422591    1.001632
     15          9           0        5.540443   -2.399584    1.897353
     16          9           0        5.898669   -0.244728    1.628993
     17          9           0        6.897038   -1.698543    0.336243
     18          6           0        3.005772   -1.166395    1.940019
     19          9           0        1.905865   -0.462067    2.300364
     20          9           0        2.696976   -2.477089    1.967029
     21          9           0        3.911887   -0.953696    2.923642
     22          6           0        0.093096   -0.736205    0.286143
     23          8           0        0.169331   -1.849772    0.795864
     24          7           0       -1.061196   -0.000713    0.336060
     25          6           0       -2.257928   -0.637502    0.866376
     26          9           0       -3.190296    0.305052    1.200031
     27          9           0       -1.919995   -1.159355    2.092525
     28          6           0       -2.945968   -1.759915    0.041704
     29          9           0       -2.039053   -2.743878   -0.230534
     30          8           0       -3.943938   -2.359807    0.885998
     31          6           0       -4.747103   -3.298856    0.223839
     32          9           0       -4.023810   -4.075300   -0.597020
     33          9           0       -5.695149   -2.648759   -0.471786
     34          9           0       -5.347334   -4.076153    1.143843
     35          6           0       -3.439281   -1.158295   -1.275248
     36          9           0       -3.992633   -2.096504   -2.080163
     37          9           0       -2.416049   -0.627547   -1.987451
     38          9           0       -4.369982   -0.202508   -1.090055
     39          6           0       -1.180783    1.205898   -0.302600
     40          8           0       -2.276497    1.651435   -0.632595
     41          1           0       -0.656916    5.239965   -0.483300
     42          1           0       -1.895346    4.015984   -0.218929
     43          1           0       -0.498781    4.102561    0.865458
     44          1           0        1.007316    3.634714   -1.065024
     45          1           0        0.110700    2.676134   -3.171836
     46          1           0       -0.403063    4.351705   -2.913631
     47          1           0       -1.538663    3.024334   -2.642211
 ---------------------------------------------------------------------

 SCF Done:  E(UCAM-B3LYP) =  -2874.07115777     A.U. after   35 cycles

 Alpha  occ. eigenvalues --  -24.87790 -24.87772 -24.87245 -24.86707 -24.86604
 Alpha  occ. eigenvalues --  -24.86301 -24.86198 -24.86051 -24.86016 -24.86013
 Alpha  occ. eigenvalues --  -24.85693 -24.85528 -24.85492 -24.85448 -24.85168
 Alpha  occ. eigenvalues --  -24.85158 -24.85043 -24.84978 -19.37359 -19.35879
 Alpha  occ. eigenvalues --  -19.35491 -19.35444 -19.30237 -14.67290 -14.60497
 Alpha  occ. eigenvalues --  -14.60171 -10.61500 -10.61486 -10.58843 -10.58479
 Alpha  occ. eigenvalues --  -10.58187 -10.57924 -10.55992 -10.55356 -10.52898
 Alpha  occ. eigenvalues --  -10.52558 -10.52484 -10.41796 -10.33436 -10.32319
 Alpha  occ. eigenvalues --   -1.45780  -1.45477  -1.44532  -1.44382  -1.43078
 Alpha  occ. eigenvalues --   -1.42593  -1.38986  -1.38810  -1.36725  -1.36208
 Alpha  occ. eigenvalues --   -1.35611  -1.35393  -1.35347  -1.35310  -1.35243
 Alpha  occ. eigenvalues --   -1.34994  -1.34620  -1.34536  -1.33248  -1.28820
 Alpha  occ. eigenvalues --   -1.25989  -1.22934  -1.22899  -1.20827  -1.16479
 Alpha  occ. eigenvalues --   -1.16174  -0.99115  -0.97138  -0.96968  -0.92018
 Alpha  occ. eigenvalues --   -0.90866  -0.87428  -0.86082  -0.85448  -0.84944
 Alpha  occ. eigenvalues --   -0.84079  -0.83089  -0.80555  -0.79249  -0.78417
 Alpha  occ. eigenvalues --   -0.76434  -0.76082  -0.75313  -0.74811  -0.73911
 Alpha  occ. eigenvalues --   -0.73455  -0.72840  -0.72357  -0.71782  -0.71710
 Alpha  occ. eigenvalues --   -0.71372  -0.71290  -0.71038  -0.70346  -0.69975
 Alpha  occ. eigenvalues --   -0.69429  -0.69051  -0.68297  -0.67921  -0.67196
 Alpha  occ. eigenvalues --   -0.66135  -0.63982  -0.63589  -0.63362  -0.62901
 Alpha  occ. eigenvalues --   -0.62745  -0.60833  -0.60202  -0.59902  -0.59813
 Alpha  occ. eigenvalues --   -0.59573  -0.59426  -0.59150  -0.58983  -0.58709
 Alpha  occ. eigenvalues --   -0.58546  -0.58084  -0.57956  -0.57825  -0.57775
 Alpha  occ. eigenvalues --   -0.57548  -0.57034  -0.56910  -0.56575  -0.56016
 Alpha  occ. eigenvalues --   -0.55529  -0.55396  -0.55178  -0.54862  -0.54490
 Alpha  occ. eigenvalues --   -0.54325  -0.54183  -0.53887  -0.53512  -0.53467
 Alpha  occ. eigenvalues --   -0.53378  -0.53131  -0.52720  -0.52708  -0.52518
 Alpha  occ. eigenvalues --   -0.52102  -0.51892  -0.51647  -0.51430  -0.51357
 Alpha  occ. eigenvalues --   -0.51295  -0.50726  -0.49720  -0.49046  -0.48610
 Alpha  occ. eigenvalues --   -0.48242  -0.47873  -0.47325  -0.47046  -0.46410
 Alpha  occ. eigenvalues --   -0.44764  -0.43318
 Alpha virt. eigenvalues --   -0.09429  -0.07307   0.00348   0.01400   0.02284
 Alpha virt. eigenvalues --    0.03260   0.05053   0.07227   0.08271   0.10298
 Alpha virt. eigenvalues --    0.10768   0.12375   0.12969   0.13621   0.14425

  Beta  occ. eigenvalues --  -24.87787 -24.87746 -24.87245 -24.86706 -24.86604
  Beta  occ. eigenvalues --  -24.86296 -24.86193 -24.86051 -24.86016 -24.86011
  Beta  occ. eigenvalues --  -24.85692 -24.85528 -24.85492 -24.85448 -24.85168
  Beta  occ. eigenvalues --  -24.85158 -24.85043 -24.84978 -19.36588 -19.35490
  Beta  occ. eigenvalues --  -19.35444 -19.35232 -19.30234 -14.66129 -14.60505
  Beta  occ. eigenvalues --  -14.60212 -10.61500 -10.61486 -10.58843 -10.58479
  Beta  occ. eigenvalues --  -10.58188 -10.57924 -10.56209 -10.55577 -10.52904
  Beta  occ. eigenvalues --  -10.52560 -10.52485 -10.41745 -10.33260 -10.32253
  Beta  occ. eigenvalues --   -1.45777  -1.45477  -1.44531  -1.44382  -1.43048
  Beta  occ. eigenvalues --   -1.42588  -1.38976  -1.38807  -1.36719  -1.36207
  Beta  occ. eigenvalues --   -1.35605  -1.35379  -1.35346  -1.35307  -1.35232
  Beta  occ. eigenvalues --   -1.34982  -1.34619  -1.34535  -1.32322  -1.27767
  Beta  occ. eigenvalues --   -1.25621  -1.22932  -1.22896  -1.18876  -1.16080
  Beta  occ. eigenvalues --   -1.15819  -0.98837  -0.97093  -0.96679  -0.91682
  Beta  occ. eigenvalues --   -0.90829  -0.87175  -0.86014  -0.85417  -0.84423
  Beta  occ. eigenvalues --   -0.83682  -0.83066  -0.80470  -0.79241  -0.78252
  Beta  occ. eigenvalues --   -0.76322  -0.76060  -0.75195  -0.74799  -0.73864
  Beta  occ. eigenvalues --   -0.73413  -0.72764  -0.72047  -0.71706  -0.71601
  Beta  occ. eigenvalues --   -0.71278  -0.71090  -0.70671  -0.70266  -0.69814
  Beta  occ. eigenvalues --   -0.69373  -0.68448  -0.68084  -0.67874  -0.66560
  Beta  occ. eigenvalues --   -0.65458  -0.63166  -0.63140  -0.63064  -0.62292
  Beta  occ. eigenvalues --   -0.61694  -0.60661  -0.60062  -0.59827  -0.59709
  Beta  occ. eigenvalues --   -0.59398  -0.59245  -0.59098  -0.58909  -0.58589
  Beta  occ. eigenvalues --   -0.58441  -0.57918  -0.57912  -0.57770  -0.57679
  Beta  occ. eigenvalues --   -0.57244  -0.56922  -0.56645  -0.56558  -0.55587
  Beta  occ. eigenvalues --   -0.55452  -0.55122  -0.54895  -0.54829  -0.54442
  Beta  occ. eigenvalues --   -0.54297  -0.53965  -0.53678  -0.53490  -0.53441
  Beta  occ. eigenvalues --   -0.53123  -0.53065  -0.52665  -0.52645  -0.52478
  Beta  occ. eigenvalues --   -0.51964  -0.51794  -0.51474  -0.51388  -0.51269
  Beta  occ. eigenvalues --   -0.49968  -0.49237  -0.49002  -0.48400  -0.47607
  Beta  occ. eigenvalues --   -0.47292  -0.47268  -0.46531  -0.45749  -0.44283
  Beta  occ. eigenvalues --   -0.43071
  Beta virt. eigenvalues --   -0.29513  -0.08300  -0.06093   0.00916   0.01456
  Beta virt. eigenvalues --    0.02312   0.03335   0.05138   0.07490   0.08475
  Beta virt. eigenvalues --    0.10429   0.10855   0.12491   0.13000   0.13772

 Mulliken charges and spin densities:
               1          2
     1  C   -0.345336   0.031708
     2  C   -0.030479   0.019621
     3  C   -0.319588   0.096927
     4  N   -0.456522   0.534500
     5  C    0.890093  -0.126489
     6  O   -0.363055   0.256071
     7  N   -0.655990  -0.011604
     8  C    0.752524  -0.000506
     9  F   -0.232528   0.000308
    10  F   -0.255813   0.001114
    11  C    0.439498  -0.000281
    12  F   -0.253739   0.001083
    13  O   -0.506555   0.000057
    14  C    1.001559  -0.000010
    15  F   -0.241773  -0.000001
    16  F   -0.241477   0.000013
    17  F   -0.233994  -0.000008
    18  C    0.821624  -0.000017
    19  F   -0.254271  -0.000020
    20  F   -0.228053  -0.000007
    21  F   -0.246283   0.000001
    22  C    0.881942  -0.002975
    23  O   -0.439003   0.001357
    24  N   -0.643032   0.002351
    25  C    0.751225  -0.000844
    26  F   -0.238752   0.005234
    27  F   -0.247556   0.000582
    28  C    0.443101  -0.000411
    29  F   -0.248354   0.000043
    30  O   -0.506860   0.000085
    31  C    1.002086   0.000009
    32  F   -0.240312   0.000012
    33  F   -0.242821   0.000003
    34  F   -0.233480   0.000011
    35  C    0.819205  -0.000263
    36  F   -0.244434   0.000055
    37  F   -0.257020   0.000660
    38  F   -0.230682   0.000013
    39  C    0.889312  -0.127605
    40  O   -0.344507   0.299132
    41  H    0.183582   0.004235
    42  H    0.173597   0.000683
    43  H    0.164667   0.007049
    44  H    0.236287   0.011146
    45  H    0.165059  -0.002264
    46  H    0.191815   0.001094
    47  H    0.175094  -0.001852
 Sum of Mulliken charges =   1.00000   1.00000

 Dipole moment (field-independent basis, Debye):
    X=             -1.0822    Y=             11.1237    Z=             -3.8643  Tot=             11.8254
 Quadrupole moment (field-independent basis, Debye-Ang):
   XX=           -204.9283   YY=           -173.8902   ZZ=           -202.0702
   XY=             -1.6256   XZ=              4.1782   YZ=             -9.3578

 Normal termination of Gaussian 09 at Sun Mar  3 17:55:09 2024.
