 Gaussian 09, Revision D.01,
 Gaussian 09:  ES64L-G09RevD.01 24-Apr-2013

 ----------------------------------------------------------------------
 #p CAM-B3LYP/6-31G(d,p) SCRF=(PCM,Solvent=Generic,Read) NoSymm out=wfn
 ----------------------------------------------------------------------

 -------------------
 Title A1320413501_0
 -------------------
 Symbolic Z-matrix:
 Charge =  0 Multiplicity = 1

                          Input orientation:
 ---------------------------------------------------------------------
 Center     Atomic      Atomic             Coordinates (Angstroms)
 Number     Number       Type             X           Y           Z
 ---------------------------------------------------------------------
      1          6           0       -0.818255    4.200336   -0.177601
      2          6           0       -0.020607    3.252169   -1.078694
      3          6           0       -0.493439    3.328928   -2.532589
      4          7           0        0.004443    1.857981   -0.581212
      5          6           0        1.203302    1.171308   -0.663532
      6          8           0        2.247371    1.723883   -1.002185
      7          7           0        1.163499   -0.165323   -0.351187
      8          6           0        2.403827   -0.920945   -0.474607
      9          9           0        2.133314   -2.257163   -0.579015
     10          9           0        2.923021   -0.634490   -1.715529
     11          6           0        3.531374   -0.716489    0.576076
     12          9           0        3.864784    0.605352    0.641775
     13          8           0        4.699736   -1.397569    0.085188
     14          6           0        5.760302   -1.422591    1.001632
     15          9           0        5.540443   -2.399584    1.897353
     16          9           0        5.898669   -0.244728    1.628993
     17          9           0        6.897038   -1.698543    0.336243
     18          6           0        3.005772   -1.166395    1.940019
     19          9           0        1.905865   -0.462067    2.300364
     20          9           0        2.696976   -2.477089    1.967029
     21          9           0        3.911887   -0.953696    2.923642
     22          6           0        0.093096   -0.736205    0.286143
     23          8           0        0.169331   -1.849772    0.795864
     24          7           0       -1.061196   -0.000713    0.336060
     25          6           0       -2.257928   -0.637502    0.866376
     26          9           0       -3.190296    0.305052    1.200031
     27          9           0       -1.919995   -1.159355    2.092525
     28          6           0       -2.945968   -1.759915    0.041704
     29          9           0       -2.039053   -2.743878   -0.230534
     30          8           0       -3.943938   -2.359807    0.885998
     31          6           0       -4.747103   -3.298856    0.223839
     32          9           0       -4.023810   -4.075300   -0.597020
     33          9           0       -5.695149   -2.648759   -0.471786
     34          9           0       -5.347334   -4.076153    1.143843
     35          6           0       -3.439281   -1.158295   -1.275248
     36          9           0       -3.992633   -2.096504   -2.080163
     37          9           0       -2.416049   -0.627547   -1.987451
     38          9           0       -4.369982   -0.202508   -1.090055
     39          6           0       -1.180783    1.205898   -0.302600
     40          8           0       -2.276497    1.651435   -0.632595
     41          1           0       -0.656916    5.239965   -0.483300
     42          1           0       -1.895346    4.015984   -0.218929
     43          1           0       -0.498781    4.102561    0.865458
     44          1           0        1.007316    3.634714   -1.065024
     45          1           0        0.110700    2.676134   -3.171836
     46          1           0       -0.403063    4.351705   -2.913631
     47          1           0       -1.538663    3.024334   -2.642211
 ---------------------------------------------------------------------

 SCF Done:  E(RCAM-B3LYP) =  -2874.39943380     A.U. after   13 cycles

 Alpha  occ. eigenvalues --  -24.84329 -24.84234 -24.83672 -24.83671 -24.83552
 Alpha  occ. eigenvalues --  -24.83549 -24.83491 -24.83490 -24.83248 -24.83243
 Alpha  occ. eigenvalues --  -24.83142 -24.83115 -24.83107 -24.83052 -24.82945
 Alpha  occ. eigenvalues --  -24.82916 -24.82086 -24.81991 -19.32990 -19.32966
 Alpha  occ. eigenvalues --  -19.24364 -19.24211 -19.24027 -14.53500 -14.53364
 Alpha  occ. eigenvalues --  -14.50492 -10.59554 -10.59549 -10.55813 -10.55801
 Alpha  occ. eigenvalues --  -10.53625 -10.53622 -10.49247 -10.49244 -10.47033
 Alpha  occ. eigenvalues --  -10.45924 -10.45919 -10.32489 -10.25863 -10.25762
 Alpha  occ. eigenvalues --   -1.43289  -1.43282  -1.42129  -1.42093  -1.38769
 Alpha  occ. eigenvalues --   -1.38687  -1.35816  -1.35749  -1.33577  -1.33528
 Alpha  occ. eigenvalues --   -1.33475  -1.33466  -1.33153  -1.33149  -1.32526
 Alpha  occ. eigenvalues --   -1.32493  -1.31163  -1.31114  -1.23572  -1.20455
 Alpha  occ. eigenvalues --   -1.20420  -1.18204  -1.18097  -1.10290  -1.08864
 Alpha  occ. eigenvalues --   -1.06652  -0.94180  -0.93445  -0.89251  -0.85629
 Alpha  occ. eigenvalues --   -0.84066  -0.82809  -0.82620  -0.80102  -0.78874
 Alpha  occ. eigenvalues --   -0.77754  -0.77293  -0.76064  -0.74881  -0.73912
 Alpha  occ. eigenvalues --   -0.73053  -0.72362  -0.71912  -0.71113  -0.70657
 Alpha  occ. eigenvalues --   -0.70202  -0.69753  -0.69652  -0.68911  -0.68899
 Alpha  occ. eigenvalues --   -0.68160  -0.67367  -0.67208  -0.66983  -0.66250
 Alpha  occ. eigenvalues --   -0.65729  -0.64399  -0.63965  -0.62188  -0.60395
 Alpha  occ. eigenvalues --   -0.60324  -0.58277  -0.57820  -0.57667  -0.57312
 Alpha  occ. eigenvalues --   -0.57180  -0.57093  -0.56622  -0.56340  -0.56085
 Alpha  occ. eigenvalues --   -0.55921  -0.55870  -0.55510  -0.54910  -0.54700
 Alpha  occ. eigenvalues --   -0.54561  -0.54427  -0.54281  -0.54148  -0.53744
 Alpha  occ. eigenvalues --   -0.53482  -0.53161  -0.53022  -0.52847  -0.52548
 Alpha  occ. eigenvalues --   -0.52304  -0.52041  -0.51898  -0.51793  -0.51376
 Alpha  occ. eigenvalues --   -0.50938  -0.50930  -0.50841  -0.50758  -0.50327
 Alpha  occ. eigenvalues --   -0.50242  -0.49695  -0.49467  -0.49233  -0.49130
 Alpha  occ. eigenvalues --   -0.48907  -0.48653  -0.47863  -0.46364  -0.46086
 Alpha  occ. eigenvalues --   -0.45948  -0.45411  -0.44578  -0.44566  -0.42509
 Alpha  occ. eigenvalues --   -0.42214  -0.40013  -0.39765  -0.38592  -0.38321
 Alpha  occ. eigenvalues --   -0.36454  -0.35923
 Alpha virt. eigenvalues --   -0.00057   0.00530   0.05608   0.06275   0.06608
 Alpha virt. eigenvalues --    0.07408   0.10097   0.13096   0.13925   0.14991
 Alpha virt. eigenvalues --    0.16043   0.17322   0.17927   0.19437   0.19674

 Mulliken charges:
               1
     1  C   -0.332819
     2  C    0.043267
     3  C   -0.318888
     4  N   -0.587508
     5  C    0.840723
     6  O   -0.498865
     7  N   -0.651022
     8  C    0.750205
     9  F   -0.247041
    10  F   -0.265833
    11  C    0.435692
    12  F   -0.253529
    13  O   -0.512704
    14  C    0.997004
    15  F   -0.245354
    16  F   -0.243062
    17  F   -0.238574
    18  C    0.817621
    19  F   -0.251238
    20  F   -0.233635
    21  F   -0.253510
    22  C    0.854244
    23  O   -0.491045
    24  N   -0.640636
    25  C    0.750580
    26  F   -0.248017
    27  F   -0.264163
    28  C    0.433218
    29  F   -0.254941
    30  O   -0.512986
    31  C    0.997155
    32  F   -0.242773
    33  F   -0.245536
    34  F   -0.238406
    35  C    0.819543
    36  F   -0.253752
    37  F   -0.251952
    38  F   -0.234166
    39  C    0.837323
    40  O   -0.491992
    41  H    0.127294
    42  H    0.139417
    43  H    0.117850
    44  H    0.163567
    45  H    0.117363
    46  H    0.126267
    47  H    0.135616
 Sum of Mulliken charges =   0.00000

 Dipole moment (field-independent basis, Debye):
    X=             -0.3875    Y=              3.1865    Z=             -0.6890  Tot=              3.2831
 Quadrupole moment (field-independent basis, Debye-Ang):
   XX=           -226.3326   YY=           -209.0891   ZZ=           -214.0409
   XY=              0.2860   XZ=              3.8133   YZ=              1.4233

 Normal termination of Gaussian 09 at Sun Mar  3 17:51:03 2024.
