 Gaussian 09, Revision D.01,
 Gaussian 09:  ES64L-G09RevD.01 24-Apr-2013

 ----------------------------------------------------------------------
 #p CAM-B3LYP/6-31G(d,p) opt SCRF=(PCM,Solvent=Generic,Read) NoSymm out
 =wfn
 ----------------------------------------------------------------------

 --------------
 Title AEP0_neu
 --------------
 Symbolic Z-matrix:
 Charge =  0 Multiplicity = 1

 SCF Done:  E(RCAM-B3LYP) =  -1989.34360003     A.U. after   13 cycles
 SCF Done:  E(RCAM-B3LYP) =  -1989.36664283     A.U. after   12 cycles
 SCF Done:  E(RCAM-B3LYP) =  -1989.37372313     A.U. after   12 cycles
 SCF Done:  E(RCAM-B3LYP) =  -1989.37568447     A.U. after   12 cycles
 SCF Done:  E(RCAM-B3LYP) =  -1989.37696723     A.U. after   12 cycles
 SCF Done:  E(RCAM-B3LYP) =  -1989.37741604     A.U. after   11 cycles
 SCF Done:  E(RCAM-B3LYP) =  -1989.37773356     A.U. after   11 cycles
 SCF Done:  E(RCAM-B3LYP) =  -1989.37779932     A.U. after   12 cycles
 SCF Done:  E(RCAM-B3LYP) =  -1989.37793862     A.U. after   11 cycles
 SCF Done:  E(RCAM-B3LYP) =  -1989.37802684     A.U. after   11 cycles
 SCF Done:  E(RCAM-B3LYP) =  -1989.37816354     A.U. after   12 cycles
 SCF Done:  E(RCAM-B3LYP) =  -1989.37815421     A.U. after   11 cycles
 SCF Done:  E(RCAM-B3LYP) =  -1989.37817954     A.U. after   11 cycles
 SCF Done:  E(RCAM-B3LYP) =  -1989.37818732     A.U. after   10 cycles
 SCF Done:  E(RCAM-B3LYP) =  -1989.37818847     A.U. after    9 cycles
 SCF Done:  E(RCAM-B3LYP) =  -1989.37818909     A.U. after    9 cycles
 SCF Done:  E(RCAM-B3LYP) =  -1989.37818940     A.U. after    8 cycles
 SCF Done:  E(RCAM-B3LYP) =  -1989.37818954     A.U. after    7 cycles
 SCF Done:  E(RCAM-B3LYP) =  -1989.37818969     A.U. after    8 cycles
 SCF Done:  E(RCAM-B3LYP) =  -1989.37818973     A.U. after    7 cycles
 Optimization completed.
    -- Stationary point found.

                          Input orientation:
 ---------------------------------------------------------------------
 Center     Atomic      Atomic             Coordinates (Angstroms)
 Number     Number       Type             X           Y           Z
 ---------------------------------------------------------------------
      1          9           0        6.002448   -2.814165    0.728626
      2          6           0        5.449093   -1.605529    0.766860
      3          9           0        6.315082   -0.766143    1.348847
      4          6           0        5.070684   -1.098089   -0.640202
      5          9           0        6.047916   -0.333834   -1.164032
      6          9           0        4.847622   -2.139352   -1.448548
      7          6           0        3.756214   -0.325889   -0.415949
      8          9           0        2.884095   -0.556025   -1.435546
      9          6           0        3.970090    1.193857   -0.296912
     10          9           0        2.754864    1.768443   -0.126552
     11          6           0        4.636892    1.900845   -1.495962
     12          8           0        4.122728    1.489101   -2.649131
     13          8           0        5.468356    2.750064   -1.350353
     14          9           0        4.730361    1.423057    0.789018
     15          6           0        3.219880   -0.963162    0.899666
     16          9           0        2.799287   -0.023327    1.796429
     17          6           0        2.050256   -1.945194    0.674459
     18          9           0        1.743237   -2.450192    1.897157
     19          6           0        0.749454   -1.391149    0.039062
     20          7           0        0.253838   -0.291801    0.635136
     21          6           0       -1.003635    0.297813    0.200547
     22          6           0       -2.208324   -0.404478    0.828973
     23          7           0       -3.463344    0.138279    0.352211
     24          6           0       -3.716962    1.492642    0.850386
     25          6           0       -5.182614    1.907365    0.645293
     26          6           0       -5.776531    1.184169   -0.559443
     27          6           0       -5.781503   -0.331151   -0.301774
     28          6           0       -4.602267   -0.739719    0.594960
     29          8           0        0.241850   -1.978314   -0.894544
     30          9           0        2.524546   -2.937360   -0.097079
     31          8           0        4.275050   -1.664770    1.484709
     32          1           0        4.546707    1.991349   -3.365683
     33          1           0        0.734627    0.094666    1.432563
     34          1           0       -1.066980    0.211571   -0.885521
     35          1           0       -0.974670    1.357796    0.458387
     36          1           0       -2.121068   -0.355846    1.932019
     37          1           0       -2.154905   -1.459048    0.545265
     38          1           0       -3.065461    2.189070    0.311570
     39          1           0       -3.455469    1.574103    1.922376
     40          1           0       -5.240647    2.993186    0.528696
     41          1           0       -5.771040    1.660066    1.535978
     42          1           0       -5.171692    1.407335   -1.443820
     43          1           0       -6.788901    1.542244   -0.767869
     44          1           0       -6.716636   -0.632618    0.182011
     45          1           0       -5.728483   -0.867698   -1.253259
     46          1           0       -4.902688   -0.725159    1.659022
     47          1           0       -4.301353   -1.767013    0.374751
 ---------------------------------------------------------------------

 Alpha  occ. eigenvalues --  -24.84000 -24.83344 -24.83057 -24.82843 -24.82783
 Alpha  occ. eigenvalues --  -24.82725 -24.82643 -24.82446 -24.81126 -24.81021
 Alpha  occ. eigenvalues --  -19.31762 -19.30896 -19.25385 -19.20947 -14.45284
 Alpha  occ. eigenvalues --  -14.39330 -10.52433 -10.48674 -10.48523 -10.46901
 Alpha  occ. eigenvalues --  -10.46228 -10.44050 -10.42586 -10.38870 -10.29988
 Alpha  occ. eigenvalues --  -10.28211 -10.27828 -10.27478 -10.25247 -10.24802
 Alpha  occ. eigenvalues --  -10.24729  -1.41053  -1.38855  -1.38549  -1.37346
 Alpha  occ. eigenvalues --   -1.35324  -1.34889  -1.33514  -1.32280  -1.32085
 Alpha  occ. eigenvalues --   -1.30523  -1.23187  -1.22123  -1.14164  -1.14101
 Alpha  occ. eigenvalues --   -1.02910  -1.00777  -0.95507  -0.90480  -0.88105
 Alpha  occ. eigenvalues --   -0.87046  -0.84129  -0.82778  -0.80747  -0.78627
 Alpha  occ. eigenvalues --   -0.76106  -0.74084  -0.73660  -0.71211  -0.71015
 Alpha  occ. eigenvalues --   -0.70338  -0.69796  -0.69418  -0.68391  -0.67541
 Alpha  occ. eigenvalues --   -0.67241  -0.66712  -0.66350  -0.65884  -0.64768
 Alpha  occ. eigenvalues --   -0.64563  -0.63797  -0.62060  -0.60105  -0.58908
 Alpha  occ. eigenvalues --   -0.57764  -0.57478  -0.57171  -0.56471  -0.56419
 Alpha  occ. eigenvalues --   -0.55609  -0.55444  -0.54819  -0.54563  -0.54356
 Alpha  occ. eigenvalues --   -0.53612  -0.53371  -0.53333  -0.53120  -0.52434
 Alpha  occ. eigenvalues --   -0.52126  -0.51987  -0.51646  -0.51401  -0.50799
 Alpha  occ. eigenvalues --   -0.50508  -0.50016  -0.49990  -0.49727  -0.49241
 Alpha  occ. eigenvalues --   -0.48845  -0.48278  -0.47032  -0.46636  -0.46059
 Alpha  occ. eigenvalues --   -0.45027  -0.44884  -0.44462  -0.43351  -0.42945
 Alpha  occ. eigenvalues --   -0.42145  -0.41973  -0.41833  -0.40880  -0.38452
 Alpha  occ. eigenvalues --   -0.37970  -0.37231  -0.36994  -0.34033  -0.33029
 Alpha  occ. eigenvalues --   -0.26890
 Alpha virt. eigenvalues --    0.01614   0.04196   0.05010   0.10177   0.11176
 Alpha virt. eigenvalues --    0.11608   0.12700   0.13772   0.14987   0.16203
 Alpha virt. eigenvalues --    0.16845   0.17102   0.17729   0.18621   0.19605

 Mulliken charges:
               1
     1  F   -0.237212
     2  C    0.751814
     3  F   -0.241693
     4  C    0.533042
     5  F   -0.257013
     6  F   -0.247764
     7  C    0.139478
     8  F   -0.278703
     9  C    0.606014
    10  F   -0.276697
    11  C    0.539817
    12  O   -0.467421
    13  O   -0.429870
    14  F   -0.262429
    15  C    0.472195
    16  F   -0.277558
    17  C    0.554495
    18  F   -0.277202
    19  C    0.553195
    20  N   -0.544860
    21  C   -0.064477
    22  C   -0.012502
    23  N   -0.448810
    24  C   -0.015662
    25  C   -0.224348
    26  C   -0.174422
    27  C   -0.183011
    28  C   -0.035528
    29  O   -0.511513
    30  F   -0.266366
    31  O   -0.478746
    32  H    0.359505
    33  H    0.286787
    34  H    0.151312
    35  H    0.119656
    36  H    0.071800
    37  H    0.120824
    38  H    0.102060
    39  H    0.071760
    40  H    0.100295
    41  H    0.102388
    42  H    0.106534
    43  H    0.093099
    44  H    0.093148
    45  H    0.103246
    46  H    0.076329
    47  H    0.105014
 Sum of Mulliken charges =   0.00000

 Dipole moment (field-independent basis, Debye):
    X=             -1.6564    Y=              3.2379    Z=             -0.2288  Tot=              3.6441
 Quadrupole moment (field-independent basis, Debye-Ang):
   XX=           -172.3230   YY=           -181.0974   ZZ=           -164.5658
   XY=             -1.9422   XZ=            -15.4050   YZ=             -6.9864

 Normal termination of Gaussian 09 at Tue Feb  4 07:25:47 2025.
