 Gaussian 09, Revision D.01,
 Gaussian 09:  ES64L-G09RevD.01 24-Apr-2013

 ----------------------------------------------------------------------
 #p CAM-B3LYP/6-31G(d,p) SCRF=(PCM,Solvent=Generic,Read) NoSymm out=wfn
 ----------------------------------------------------------------------

 -------------------
 Title A543479932_p1
 -------------------
 Symbolic Z-matrix:
 Charge =  1 Multiplicity = 2

                          Input orientation:
 ---------------------------------------------------------------------
 Center     Atomic      Atomic             Coordinates (Angstroms)
 Number     Number       Type             X           Y           Z
 ---------------------------------------------------------------------
      1          6           0       -3.256125    3.184735   -0.392629
      2          6           0       -3.073592    2.335817    0.437305
      3          6           0       -2.844538    1.294528    1.453699
      4          7           0       -1.842892    0.342486    0.992718
      5          6           0       -2.269654   -0.738618    0.253714
      6          8           0       -3.463472   -0.967143    0.057140
      7          7           0       -1.274483   -1.536297   -0.266964
      8          6           0       -1.668846   -2.675759   -1.085087
      9          6           0       -1.821178   -3.879529   -0.250202
     10          6           0       -1.943706   -4.860429    0.432160
     11          6           0        0.069480   -1.319256   -0.052013
     12          8           0        0.922933   -1.976052   -0.645517
     13          7           0        0.396354   -0.319047    0.831528
     14          6           0        1.807876   -0.091632    1.122998
     15          9           0        2.386722   -1.324018    1.318791
     16          9           0        1.944217    0.486159    2.353325
     17          6           0        2.679599    0.674303    0.087692
     18          9           0        3.976184    0.627623    0.537563
     19          8           0        2.671641   -0.022462   -1.162172
     20          6           0        3.374148    0.629552   -2.184504
     21          9           0        4.517086    1.170773   -1.737922
     22          9           0        2.584973    1.583603   -2.708744
     23          9           0        3.661075   -0.263106   -3.149818
     24          6           0        2.222861    2.133517    0.042587
     25          9           0        2.208156    2.723734    1.252830
     26          9           0        3.040769    2.887649   -0.731796
     27          9           0        0.986815    2.233438   -0.501594
     28          6           0       -0.519460    0.606637    1.259933
     29          8           0       -0.173689    1.638046    1.832970
     30          1           0       -3.417917    3.940534   -1.126795
     31          1           0       -3.784106    0.774250    1.671127
     32          1           0       -2.515312    1.756216    2.391573
     33          1           0       -0.918958   -2.857128   -1.863182
     34          1           0       -2.610779   -2.460670   -1.602102
     35          1           0       -2.052182   -5.732453    1.035677
 ---------------------------------------------------------------------

 SCF Done:  E(UCAM-B3LYP) =  -1861.67405790     A.U. after   46 cycles

 Alpha  occ. eigenvalues --  -24.85830 -24.85199 -24.85087 -24.85032 -24.84900
 Alpha  occ. eigenvalues --  -24.84708 -24.84523 -24.84477 -24.84222 -19.34638
 Alpha  occ. eigenvalues --  -19.29206 -19.27733 -19.27660 -14.56423 -14.55571
 Alpha  occ. eigenvalues --  -14.55432 -10.61035 -10.57356 -10.55886 -10.51029
 Alpha  occ. eigenvalues --  -10.49739 -10.49612 -10.49583 -10.40791 -10.40474
 Alpha  occ. eigenvalues --  -10.38274 -10.37735 -10.37534 -10.37002  -1.44747
 Alpha  occ. eigenvalues --   -1.43598  -1.40961  -1.36910  -1.35047  -1.34849
 Alpha  occ. eigenvalues --   -1.34699  -1.33915  -1.33251  -1.26764  -1.22447
 Alpha  occ. eigenvalues --   -1.21914  -1.21416  -1.13447  -1.11788  -1.11206
 Alpha  occ. eigenvalues --   -0.97352  -0.95725  -0.95354  -0.90422  -0.88804
 Alpha  occ. eigenvalues --   -0.87071  -0.84155  -0.82055  -0.81629  -0.78444
 Alpha  occ. eigenvalues --   -0.78270  -0.75055  -0.74490  -0.72692  -0.71781
 Alpha  occ. eigenvalues --   -0.71175  -0.70213  -0.69955  -0.69621  -0.68248
 Alpha  occ. eigenvalues --   -0.68008  -0.66899  -0.66543  -0.65986  -0.63934
 Alpha  occ. eigenvalues --   -0.63087  -0.61838  -0.60553  -0.60350  -0.59875
 Alpha  occ. eigenvalues --   -0.59067  -0.58717  -0.58565  -0.57920  -0.57575
 Alpha  occ. eigenvalues --   -0.57387  -0.56766  -0.56442  -0.56053  -0.55908
 Alpha  occ. eigenvalues --   -0.55315  -0.55089  -0.54526  -0.54023  -0.53488
 Alpha  occ. eigenvalues --   -0.53017  -0.52790  -0.52294  -0.51960  -0.51232
 Alpha  occ. eigenvalues --   -0.50954  -0.50516  -0.47951  -0.46440  -0.45615
 Alpha  occ. eigenvalues --   -0.44754  -0.44600  -0.44140  -0.43497  -0.43299
 Alpha  occ. eigenvalues --   -0.42227  -0.41766  -0.41299  -0.39993
 Alpha virt. eigenvalues --   -0.03228  -0.02371   0.00608   0.01127   0.01272
 Alpha virt. eigenvalues --    0.01760   0.04231   0.05241   0.07806   0.10429
 Alpha virt. eigenvalues --    0.11865   0.12558   0.12872   0.13363   0.14488

  Beta  occ. eigenvalues --  -24.85830 -24.85197 -24.85087 -24.85032 -24.84900
  Beta  occ. eigenvalues --  -24.84708 -24.84523 -24.84476 -24.84220 -19.34637
  Beta  occ. eigenvalues --  -19.29010 -19.27693 -19.27619 -14.56415 -14.55563
  Beta  occ. eigenvalues --  -14.55428 -10.61035 -10.57356 -10.55887 -10.51028
  Beta  occ. eigenvalues --  -10.49760 -10.49616 -10.49588 -10.40763 -10.40445
  Beta  occ. eigenvalues --  -10.38025 -10.37328 -10.37309 -10.36624  -1.44747
  Beta  occ. eigenvalues --   -1.43598  -1.40958  -1.36910  -1.35047  -1.34849
  Beta  occ. eigenvalues --   -1.34699  -1.33915  -1.33247  -1.26699  -1.22411
  Beta  occ. eigenvalues --   -1.21729  -1.21352  -1.13308  -1.11683  -1.11139
  Beta  occ. eigenvalues --   -0.96762  -0.95133  -0.94496  -0.89349  -0.88071
  Beta  occ. eigenvalues --   -0.87002  -0.84142  -0.81862  -0.81568  -0.78355
  Beta  occ. eigenvalues --   -0.78227  -0.75021  -0.74479  -0.72667  -0.71752
  Beta  occ. eigenvalues --   -0.71174  -0.70206  -0.69610  -0.69394  -0.68159
  Beta  occ. eigenvalues --   -0.67888  -0.66850  -0.66361  -0.65851  -0.63704
  Beta  occ. eigenvalues --   -0.62969  -0.61797  -0.60455  -0.60133  -0.59487
  Beta  occ. eigenvalues --   -0.58988  -0.58645  -0.58263  -0.57848  -0.57531
  Beta  occ. eigenvalues --   -0.57280  -0.56633  -0.56100  -0.55846  -0.55487
  Beta  occ. eigenvalues --   -0.55179  -0.54986  -0.54430  -0.54012  -0.53467
  Beta  occ. eigenvalues --   -0.52993  -0.52769  -0.52282  -0.51946  -0.51225
  Beta  occ. eigenvalues --   -0.50937  -0.50512  -0.47940  -0.46399  -0.44605
  Beta  occ. eigenvalues --   -0.44104  -0.43202  -0.42875  -0.41919  -0.41531
  Beta  occ. eigenvalues --   -0.41135  -0.39454  -0.35279
  Beta virt. eigenvalues --   -0.29777  -0.03077  -0.02326   0.00971   0.01581
  Beta virt. eigenvalues --    0.03605   0.04007   0.04248   0.05277   0.07906
  Beta virt. eigenvalues --    0.10592   0.12045   0.12837   0.13137   0.13666

 Mulliken charges and spin densities:
               1          2
     1  C   -0.229110   0.275470
     2  C    0.368473   0.163627
     3  C   -0.196852   0.007999
     4  N   -0.572560   0.006264
     5  C    0.864291  -0.013690
     6  O   -0.478493   0.073076
     7  N   -0.572902   0.004790
     8  C   -0.196688   0.008811
     9  C    0.361662   0.146836
    10  C   -0.242899   0.257603
    11  C    0.862076  -0.002929
    12  O   -0.471329   0.014392
    13  N   -0.634302   0.003913
    14  C    0.745091  -0.000301
    15  F   -0.260264   0.000412
    16  F   -0.243625   0.000342
    17  C    0.439205   0.000157
    18  F   -0.262794   0.000053
    19  O   -0.503821   0.000039
    20  C    0.997375  -0.000005
    21  F   -0.239633   0.000007
    22  F   -0.248818   0.000000
    23  F   -0.236478   0.000000
    24  C    0.817769  -0.000029
    25  F   -0.232913   0.000076
    26  F   -0.252076   0.000007
    27  F   -0.253581  -0.000001
    28  C    0.859553  -0.002882
    29  O   -0.484947   0.015083
    30  H    0.265422  -0.010118
    31  H    0.242887   0.013751
    32  H    0.246608   0.017439
    33  H    0.244712   0.016687
    34  H    0.238321   0.012627
    35  H    0.260639  -0.009504
 Sum of Mulliken charges =   1.00000   1.00000

 Dipole moment (field-independent basis, Debye):
    X=            -13.2478    Y=             -3.4079    Z=              0.3169  Tot=             13.6828
 Quadrupole moment (field-independent basis, Debye-Ang):
   XX=           -126.3449   YY=            -92.5319   ZZ=           -143.0365
   XY=             -1.5111   XZ=             -3.7273   YZ=             -7.3877

 Normal termination of Gaussian 09 at Sun Mar  3 18:10:01 2024.
