 Gaussian 09, Revision D.01,
 Gaussian 09:  ES64L-G09RevD.01 24-Apr-2013

 ----------------------------------------------------------------------
 #p CAM-B3LYP/6-31G(d,p) SCRF=(PCM,Solvent=Generic,Read) NoSymm out=wfn
 ----------------------------------------------------------------------

 ------------------
 Title A543479932_0
 ------------------
 Symbolic Z-matrix:
 Charge =  0 Multiplicity = 1

                          Input orientation:
 ---------------------------------------------------------------------
 Center     Atomic      Atomic             Coordinates (Angstroms)
 Number     Number       Type             X           Y           Z
 ---------------------------------------------------------------------
      1          6           0       -3.256125    3.184735   -0.392629
      2          6           0       -3.073592    2.335817    0.437305
      3          6           0       -2.844538    1.294528    1.453699
      4          7           0       -1.842892    0.342486    0.992718
      5          6           0       -2.269654   -0.738618    0.253714
      6          8           0       -3.463472   -0.967143    0.057140
      7          7           0       -1.274483   -1.536297   -0.266964
      8          6           0       -1.668846   -2.675759   -1.085087
      9          6           0       -1.821178   -3.879529   -0.250202
     10          6           0       -1.943706   -4.860429    0.432160
     11          6           0        0.069480   -1.319256   -0.052013
     12          8           0        0.922933   -1.976052   -0.645517
     13          7           0        0.396354   -0.319047    0.831528
     14          6           0        1.807876   -0.091632    1.122998
     15          9           0        2.386722   -1.324018    1.318791
     16          9           0        1.944217    0.486159    2.353325
     17          6           0        2.679599    0.674303    0.087692
     18          9           0        3.976184    0.627623    0.537563
     19          8           0        2.671641   -0.022462   -1.162172
     20          6           0        3.374148    0.629552   -2.184504
     21          9           0        4.517086    1.170773   -1.737922
     22          9           0        2.584973    1.583603   -2.708744
     23          9           0        3.661075   -0.263106   -3.149818
     24          6           0        2.222861    2.133517    0.042587
     25          9           0        2.208156    2.723734    1.252830
     26          9           0        3.040769    2.887649   -0.731796
     27          9           0        0.986815    2.233438   -0.501594
     28          6           0       -0.519460    0.606637    1.259933
     29          8           0       -0.173689    1.638046    1.832970
     30          1           0       -3.417917    3.940534   -1.126795
     31          1           0       -3.784106    0.774250    1.671127
     32          1           0       -2.515312    1.756216    2.391573
     33          1           0       -0.918958   -2.857128   -1.863182
     34          1           0       -2.610779   -2.460670   -1.602102
     35          1           0       -2.052182   -5.732453    1.035677
 ---------------------------------------------------------------------

 SCF Done:  E(RCAM-B3LYP) =  -1861.99393523     A.U. after   13 cycles

 Alpha  occ. eigenvalues --  -24.83607 -24.83537 -24.83376 -24.83139 -24.83079
 Alpha  occ. eigenvalues --  -24.82803 -24.82748 -24.82637 -24.81811 -19.32723
 Alpha  occ. eigenvalues --  -19.23663 -19.23515 -19.23455 -14.52811 -14.50651
 Alpha  occ. eigenvalues --  -14.50621 -10.59391 -10.55370 -10.53326 -10.48941
 Alpha  occ. eigenvalues --  -10.45628 -10.45578 -10.44759 -10.34467 -10.34408
 Alpha  occ. eigenvalues --  -10.27614 -10.27610 -10.26823 -10.26818  -1.43083
 Alpha  occ. eigenvalues --   -1.41702  -1.38602  -1.35062  -1.33294  -1.33119
 Alpha  occ. eigenvalues --   -1.32905  -1.32119  -1.30898  -1.22443  -1.20417
 Alpha  occ. eigenvalues --   -1.17343  -1.17129  -1.09231  -1.07347  -1.06315
 Alpha  occ. eigenvalues --   -0.93554  -0.89496  -0.87454  -0.84137  -0.82116
 Alpha  occ. eigenvalues --   -0.81613  -0.81353  -0.78504  -0.76792  -0.75486
 Alpha  occ. eigenvalues --   -0.73954  -0.72693  -0.72108  -0.70454  -0.69451
 Alpha  occ. eigenvalues --   -0.69329  -0.68318  -0.66283  -0.66084  -0.64370
 Alpha  occ. eigenvalues --   -0.63640  -0.63004  -0.60688  -0.60467  -0.59579
 Alpha  occ. eigenvalues --   -0.57695  -0.57378  -0.57022  -0.56886  -0.56407
 Alpha  occ. eigenvalues --   -0.56027  -0.55615  -0.55223  -0.54810  -0.54675
 Alpha  occ. eigenvalues --   -0.54490  -0.53819  -0.53410  -0.52925  -0.52533
 Alpha  occ. eigenvalues --   -0.52064  -0.51357  -0.51221  -0.50779  -0.50708
 Alpha  occ. eigenvalues --   -0.50440  -0.49991  -0.49862  -0.49803  -0.49087
 Alpha  occ. eigenvalues --   -0.48762  -0.48518  -0.45880  -0.44384  -0.39970
 Alpha  occ. eigenvalues --   -0.39709  -0.38554  -0.37309  -0.37266  -0.35683
 Alpha  occ. eigenvalues --   -0.34926  -0.34879  -0.34299  -0.34161
 Alpha virt. eigenvalues --    0.01151   0.01738   0.06364   0.07374   0.08219
 Alpha virt. eigenvalues --    0.08592   0.09745   0.09955   0.12176   0.14469
 Alpha virt. eigenvalues --    0.15158   0.17171   0.17444   0.18221   0.18628

 Mulliken charges:
               1
     1  C   -0.418808
     2  C    0.274316
     3  C   -0.174706
     4  N   -0.566280
     5  C    0.837531
     6  O   -0.513382
     7  N   -0.566767
     8  C   -0.176127
     9  C    0.274615
    10  C   -0.419416
    11  C    0.846350
    12  O   -0.494806
    13  N   -0.632664
    14  C    0.744349
    15  F   -0.265154
    16  F   -0.248959
    17  C    0.434946
    18  F   -0.268808
    19  O   -0.500615
    20  C    0.994875
    21  F   -0.242525
    22  F   -0.248951
    23  F   -0.238473
    24  C    0.817147
    25  F   -0.234847
    26  F   -0.256423
    27  F   -0.249296
    28  C    0.842769
    29  O   -0.507237
    30  H    0.191729
    31  H    0.194154
    32  H    0.192274
    33  H    0.193943
    34  H    0.193424
    35  H    0.191820
 Sum of Mulliken charges =   0.00000

 Dipole moment (field-independent basis, Debye):
    X=             -2.4418    Y=             -0.4048    Z=             -0.2546  Tot=              2.4882
 Quadrupole moment (field-independent basis, Debye-Ang):
   XX=           -163.4223   YY=           -151.1440   ZZ=           -150.0730
   XY=             -0.2851   XZ=             -2.5806   YZ=             -7.0006

 Normal termination of Gaussian 09 at Sun Mar  3 18:08:27 2024.
