 Gaussian 09, Revision D.01,
 Gaussian 09:  ES64L-G09RevD.01 24-Apr-2013

 ----------------------------------------------------------------------
 #p CAM-B3LYP/6-31G(d,p) SCRF=(PCM,Solvent=Generic,Read) NoSymm out=wfn
 ----------------------------------------------------------------------

 -------------------
 Title A1013755061_0
 -------------------
 Symbolic Z-matrix:
 Charge =  0 Multiplicity = 1

                          Input orientation:
 ---------------------------------------------------------------------
 Center     Atomic      Atomic             Coordinates (Angstroms)
 Number     Number       Type             X           Y           Z
 ---------------------------------------------------------------------
      1          6           0       -1.771469    2.066768   -1.533639
      2          7           0       -1.565523    0.850007   -0.769830
      3          6           0       -0.738462   -0.155097   -1.358247
      4          7           0       -0.232047   -1.048661   -0.350482
      5          6           0        0.746964   -0.491395    0.577834
      6          9           0        1.159917   -1.528116    1.372774
      7          9           0        0.122052    0.366099    1.437793
      8          6           0        2.027720    0.221226    0.054036
      9          9           0        1.665786    1.289506   -0.719213
     10          8           0        2.717438    0.770666    1.189500
     11          6           0        3.974369    1.299427    0.869499
     12          9           0        4.863688    0.295744    0.780708
     13          9           0        4.359592    2.126736    1.858825
     14          9           0        3.941626    1.987326   -0.282837
     15          6           0        2.802963   -0.804404   -0.783809
     16          9           0        3.895581   -0.249504   -1.364084
     17          9           0        2.068890   -1.311734   -1.801797
     18          9           0        3.242991   -1.846296   -0.044303
     19          6           0       -1.344737   -1.677882    0.319403
     20          7           0       -2.312315   -0.719870    0.786000
     21          6           0       -3.305214   -1.204170    1.727498
     22          6           0       -2.531463    0.488883    0.153491
     23          8           0       -3.493945    1.208771    0.412663
     24          1           0       -2.376547    1.833640   -2.414959
     25          1           0       -0.802744    2.469672   -1.842979
     26          1           0       -2.289183    2.822871   -0.936339
     27          1           0        0.067892    0.307673   -1.934413
     28          1           0       -1.344131   -0.705292   -2.091260
     29          1           0       -1.863274   -2.353600   -0.373319
     30          1           0       -1.013796   -2.299749    1.159661
     31          1           0       -3.916891   -0.390509    2.126586
     32          1           0       -3.956107   -1.918267    1.214188
     33          1           0       -2.799622   -1.700469    2.561049
 ---------------------------------------------------------------------

 SCF Done:  E(RCAM-B3LYP) =  -1561.76822610     A.U. after   13 cycles

 Alpha  occ. eigenvalues --  -24.83629 -24.83593 -24.83383 -24.83260 -24.83223
 Alpha  occ. eigenvalues --  -24.83138 -24.82721 -24.81059 -24.80029 -19.32764
 Alpha  occ. eigenvalues --  -19.17649 -14.45357 -14.42887 -14.42623 -10.59395
 Alpha  occ. eigenvalues --  -10.55392 -10.49705 -10.48606 -10.38338 -10.33967
 Alpha  occ. eigenvalues --  -10.33726 -10.28553 -10.28494  -1.43085  -1.41669
 Alpha  occ. eigenvalues --   -1.36966  -1.35568  -1.33368  -1.33177  -1.32690
 Alpha  occ. eigenvalues --   -1.32142  -1.29579  -1.20265  -1.13303  -1.07852
 Alpha  occ. eigenvalues --   -1.01255  -0.99597  -0.92499  -0.82700  -0.82062
 Alpha  occ. eigenvalues --   -0.81702  -0.80376  -0.76749  -0.73901  -0.73429
 Alpha  occ. eigenvalues --   -0.72320  -0.70678  -0.70149  -0.69279  -0.68499
 Alpha  occ. eigenvalues --   -0.67240  -0.66026  -0.65618  -0.63920  -0.61155
 Alpha  occ. eigenvalues --   -0.60380  -0.59094  -0.57524  -0.57001  -0.56717
 Alpha  occ. eigenvalues --   -0.56154  -0.55847  -0.55456  -0.55230  -0.54778
 Alpha  occ. eigenvalues --   -0.53867  -0.53303  -0.52532  -0.52247  -0.51975
 Alpha  occ. eigenvalues --   -0.51676  -0.51062  -0.50651  -0.50464  -0.50119
 Alpha  occ. eigenvalues --   -0.49545  -0.49135  -0.48752  -0.48418  -0.48138
 Alpha  occ. eigenvalues --   -0.46881  -0.45782  -0.45312  -0.45205  -0.45001
 Alpha  occ. eigenvalues --   -0.44318  -0.43065  -0.34621  -0.32905  -0.30483
 Alpha  occ. eigenvalues --   -0.28684
 Alpha virt. eigenvalues --    0.06621   0.09139   0.09633   0.14198   0.15032
 Alpha virt. eigenvalues --    0.16170   0.17114   0.18411   0.19581   0.20011
 Alpha virt. eigenvalues --    0.20213   0.20393   0.21374   0.22447   0.22548

 Mulliken charges:
               1
     1  C   -0.174454
     2  N   -0.481553
     3  C    0.053881
     4  N   -0.483338
     5  C    0.735116
     6  F   -0.292154
     7  F   -0.273757
     8  C    0.403553
     9  F   -0.264209
    10  O   -0.510806
    11  C    0.995189
    12  F   -0.246033
    13  F   -0.239336
    14  F   -0.245086
    15  C    0.812805
    16  F   -0.257933
    17  F   -0.239872
    18  F   -0.241328
    19  C    0.074078
    20  N   -0.485312
    21  C   -0.179055
    22  C    0.771291
    23  O   -0.585086
    24  H    0.116867
    25  H    0.119770
    26  H    0.149782
    27  H    0.138840
    28  H    0.141080
    29  H    0.141749
    30  H    0.149865
    31  H    0.154031
    32  H    0.118691
    33  H    0.122723
 Sum of Mulliken charges =   0.00000

 Dipole moment (field-independent basis, Debye):
    X=              0.8226    Y=             -2.6644    Z=             -2.2375  Tot=              3.5752
 Quadrupole moment (field-independent basis, Debye-Ang):
   XX=           -138.8133   YY=           -123.6340   ZZ=           -121.7195
   XY=             12.4769   XZ=              1.5214   YZ=             -5.2925

 Normal termination of Gaussian 09 at Sun Mar  3 18:23:29 2024.
