 Gaussian 09, Revision D.01,
 Gaussian 09:  ES64L-G09RevD.01 24-Apr-2013

 ----------------------------------------------------------------------
 #p CAM-B3LYP/6-31G(d,p) SCRF=(PCM,Solvent=Generic,Read) NoSymm out=wfn
 ----------------------------------------------------------------------

 --------------------
 Title A1013755061_p1
 --------------------
 Symbolic Z-matrix:
 Charge =  1 Multiplicity = 2

                          Input orientation:
 ---------------------------------------------------------------------
 Center     Atomic      Atomic             Coordinates (Angstroms)
 Number     Number       Type             X           Y           Z
 ---------------------------------------------------------------------
      1          6           0       -1.771469    2.066768   -1.533639
      2          7           0       -1.565523    0.850007   -0.769830
      3          6           0       -0.738462   -0.155097   -1.358247
      4          7           0       -0.232047   -1.048661   -0.350482
      5          6           0        0.746964   -0.491395    0.577834
      6          9           0        1.159917   -1.528116    1.372774
      7          9           0        0.122052    0.366099    1.437793
      8          6           0        2.027720    0.221226    0.054036
      9          9           0        1.665786    1.289506   -0.719213
     10          8           0        2.717438    0.770666    1.189500
     11          6           0        3.974369    1.299427    0.869499
     12          9           0        4.863688    0.295744    0.780708
     13          9           0        4.359592    2.126736    1.858825
     14          9           0        3.941626    1.987326   -0.282837
     15          6           0        2.802963   -0.804404   -0.783809
     16          9           0        3.895581   -0.249504   -1.364084
     17          9           0        2.068890   -1.311734   -1.801797
     18          9           0        3.242991   -1.846296   -0.044303
     19          6           0       -1.344737   -1.677882    0.319403
     20          7           0       -2.312315   -0.719870    0.786000
     21          6           0       -3.305214   -1.204170    1.727498
     22          6           0       -2.531463    0.488883    0.153491
     23          8           0       -3.493945    1.208771    0.412663
     24          1           0       -2.376547    1.833640   -2.414959
     25          1           0       -0.802744    2.469672   -1.842979
     26          1           0       -2.289183    2.822871   -0.936339
     27          1           0        0.067892    0.307673   -1.934413
     28          1           0       -1.344131   -0.705292   -2.091260
     29          1           0       -1.863274   -2.353600   -0.373319
     30          1           0       -1.013796   -2.299749    1.159661
     31          1           0       -3.916891   -0.390509    2.126586
     32          1           0       -3.956107   -1.918267    1.214188
     33          1           0       -2.799622   -1.700469    2.561049
 ---------------------------------------------------------------------

 SCF Done:  E(UCAM-B3LYP) =  -1561.51531657     A.U. after   24 cycles

 Alpha  occ. eigenvalues --  -24.86761 -24.86425 -24.85635 -24.85557 -24.85460
 Alpha  occ. eigenvalues --  -24.85434 -24.85197 -24.85027 -24.84979 -19.35441
 Alpha  occ. eigenvalues --  -19.26868 -14.59660 -14.57638 -14.52409 -10.61474
 Alpha  occ. eigenvalues --  -10.58070 -10.54719 -10.52105 -10.48327 -10.42230
 Alpha  occ. eigenvalues --  -10.41417 -10.36332 -10.35678  -1.45191  -1.44057
 Alpha  occ. eigenvalues --   -1.41588  -1.39142  -1.35465  -1.35320  -1.35020
 Alpha  occ. eigenvalues --   -1.34515  -1.34242  -1.24276  -1.22937  -1.16409
 Alpha  occ. eigenvalues --   -1.13962  -1.09115  -0.96289  -0.90818  -0.90614
 Alpha  occ. eigenvalues --   -0.87919  -0.85006  -0.82624  -0.81280  -0.78241
 Alpha  occ. eigenvalues --   -0.75695  -0.74412  -0.73573  -0.72500  -0.71671
 Alpha  occ. eigenvalues --   -0.71575  -0.70722  -0.69900  -0.68805  -0.68597
 Alpha  occ. eigenvalues --   -0.66939  -0.66359  -0.65651  -0.64020  -0.62929
 Alpha  occ. eigenvalues --   -0.61379  -0.59762  -0.59354  -0.58935  -0.58590
 Alpha  occ. eigenvalues --   -0.57799  -0.57704  -0.57335  -0.57001  -0.56898
 Alpha  occ. eigenvalues --   -0.55662  -0.55325  -0.54888  -0.54323  -0.54143
 Alpha  occ. eigenvalues --   -0.54045  -0.53545  -0.53230  -0.53087  -0.52709
 Alpha  occ. eigenvalues --   -0.52353  -0.52255  -0.52045  -0.51186  -0.50713
 Alpha  occ. eigenvalues --   -0.48374  -0.46763  -0.43511  -0.41952  -0.41655
 Alpha  occ. eigenvalues --   -0.40868
 Alpha virt. eigenvalues --    0.00080   0.02982   0.05602   0.08476   0.10076
 Alpha virt. eigenvalues --    0.10682   0.11476   0.11836   0.12335   0.13809
 Alpha virt. eigenvalues --    0.14899   0.15790   0.16401   0.17118   0.17548

  Beta  occ. eigenvalues --  -24.86760 -24.86424 -24.85635 -24.85557 -24.85454
  Beta  occ. eigenvalues --  -24.85426 -24.85197 -24.85027 -24.84979 -19.35441
  Beta  occ. eigenvalues --  -19.26997 -14.58439 -14.56658 -14.52391 -10.61474
  Beta  occ. eigenvalues --  -10.58070 -10.54722 -10.52104 -10.48473 -10.42261
  Beta  occ. eigenvalues --  -10.41444 -10.36360 -10.35697  -1.45191  -1.44056
  Beta  occ. eigenvalues --   -1.41574  -1.39139  -1.35465  -1.35320  -1.35019
  Beta  occ. eigenvalues --   -1.34506  -1.34234  -1.23365  -1.22928  -1.16245
  Beta  occ. eigenvalues --   -1.11770  -1.08411  -0.96253  -0.90476  -0.90315
  Beta  occ. eigenvalues --   -0.87756  -0.84985  -0.81822  -0.81132  -0.78172
  Beta  occ. eigenvalues --   -0.75600  -0.74276  -0.73392  -0.72185  -0.71585
  Beta  occ. eigenvalues --   -0.71354  -0.70687  -0.69799  -0.68625  -0.68263
  Beta  occ. eigenvalues --   -0.66727  -0.64925  -0.64112  -0.62747  -0.61996
  Beta  occ. eigenvalues --   -0.60776  -0.59735  -0.59295  -0.58655  -0.58502
  Beta  occ. eigenvalues --   -0.57767  -0.57690  -0.57069  -0.56988  -0.56454
  Beta  occ. eigenvalues --   -0.55336  -0.55258  -0.54729  -0.54221  -0.53982
  Beta  occ. eigenvalues --   -0.53826  -0.53490  -0.53134  -0.52825  -0.52336
  Beta  occ. eigenvalues --   -0.52175  -0.52071  -0.52015  -0.51180  -0.50653
  Beta  occ. eigenvalues --   -0.48359  -0.46753  -0.41692  -0.41294  -0.37232
  Beta virt. eigenvalues --   -0.21834   0.00705   0.03036   0.05649   0.08620
  Beta virt. eigenvalues --    0.10194   0.10880   0.11692   0.12310   0.12826
  Beta virt. eigenvalues --    0.14333   0.15172   0.15960   0.16687   0.17467

 Mulliken charges and spin densities:
               1          2
     1  C   -0.211269  -0.019685
     2  N   -0.369717   0.441035
     3  C    0.014701  -0.018090
     4  N   -0.465089   0.009118
     5  C    0.729571  -0.002176
     6  F   -0.275462   0.001288
     7  F   -0.271044   0.001942
     8  C    0.406801   0.000584
     9  F   -0.263061   0.000135
    10  O   -0.506102   0.000031
    11  C    1.000207   0.000021
    12  F   -0.241898  -0.000001
    13  F   -0.234729   0.000004
    14  F   -0.242867   0.000001
    15  C    0.820118   0.000003
    16  F   -0.250338   0.000022
    17  F   -0.240500   0.000053
    18  F   -0.235336   0.000004
    19  C    0.025673  -0.024988
    20  N   -0.346357   0.549020
    21  C   -0.220103  -0.025501
    22  C    0.804155  -0.086894
    23  O   -0.494329  -0.044130
    24  H    0.198506   0.041221
    25  H    0.181949   0.011038
    26  H    0.202447   0.004532
    27  H    0.198113   0.006775
    28  H    0.216964   0.027874
    29  H    0.231160   0.040851
    30  H    0.222291   0.016277
    31  H    0.211568   0.003742
    32  H    0.207933   0.046909
    33  H    0.196044   0.018983
 Sum of Mulliken charges =   1.00000   1.00000

 Dipole moment (field-independent basis, Debye):
    X=             -8.1766    Y=             -3.1612    Z=             -2.1631  Tot=              9.0293
 Quadrupole moment (field-independent basis, Debye-Ang):
   XX=           -106.6984   YY=           -109.3257   ZZ=           -109.1579
   XY=             14.4283   XZ=             -1.7071   YZ=            -10.8507

 Normal termination of Gaussian 09 at Sun Mar  3 18:23:58 2024.
