 Gaussian 09, Revision D.01,
 Gaussian 09:  ES64L-G09RevD.01 24-Apr-2013

 ----------------------------------------------------------------------
 #p CAM-B3LYP/6-31G(d,p) opt SCRF=(PCM,Solvent=Generic,Read) NoSymm out
 =wfn
 ----------------------------------------------------------------------

 --------------
 Title APN1_neu
 --------------
 Symbolic Z-matrix:
 Charge =  0 Multiplicity = 1

 SCF Done:  E(RCAM-B3LYP) =  -2075.51909670     A.U. after   14 cycles
 SCF Done:  E(RCAM-B3LYP) =  -2075.53651333     A.U. after   13 cycles
 SCF Done:  E(RCAM-B3LYP) =  -2075.54543289     A.U. after   13 cycles
 SCF Done:  E(RCAM-B3LYP) =  -2075.54872518     A.U. after   13 cycles
 SCF Done:  E(RCAM-B3LYP) =  -2075.54829676     A.U. after   13 cycles
 SCF Done:  E(RCAM-B3LYP) =  -2075.54952943     A.U. after   10 cycles
 SCF Done:  E(RCAM-B3LYP) =  -2075.54999734     A.U. after   12 cycles
 SCF Done:  E(RCAM-B3LYP) =  -2075.55025636     A.U. after   12 cycles
 SCF Done:  E(RCAM-B3LYP) =  -2075.55062792     A.U. after   12 cycles
 SCF Done:  E(RCAM-B3LYP) =  -2075.55081762     A.U. after   11 cycles
 SCF Done:  E(RCAM-B3LYP) =  -2075.55100262     A.U. after   11 cycles
 SCF Done:  E(RCAM-B3LYP) =  -2075.55102011     A.U. after   11 cycles
 SCF Done:  E(RCAM-B3LYP) =  -2075.55102448     A.U. after   10 cycles
 SCF Done:  E(RCAM-B3LYP) =  -2075.55102627     A.U. after    9 cycles
 SCF Done:  E(RCAM-B3LYP) =  -2075.55102829     A.U. after   10 cycles
 SCF Done:  E(RCAM-B3LYP) =  -2075.55103117     A.U. after   10 cycles
 SCF Done:  E(RCAM-B3LYP) =  -2075.55103386     A.U. after   10 cycles
 SCF Done:  E(RCAM-B3LYP) =  -2075.55103485     A.U. after    9 cycles
 SCF Done:  E(RCAM-B3LYP) =  -2075.55103501     A.U. after    8 cycles
 SCF Done:  E(RCAM-B3LYP) =  -2075.55103505     A.U. after    8 cycles
 Optimization completed.
    -- Stationary point found.

                          Input orientation:
 ---------------------------------------------------------------------
 Center     Atomic      Atomic             Coordinates (Angstroms)
 Number     Number       Type             X           Y           Z
 ---------------------------------------------------------------------
      1          9           0        1.929990    3.066435    1.819323
      2          6           0        1.440508    1.830146    1.961013
      3          9           0        0.418308    1.878706    2.815329
      4          6           0        2.543956    0.860799    2.426408
      5          9           0        1.981314   -0.131947    3.139883
      6          9           0        3.467180    1.476282    3.164912
      7          6           0        3.108890    0.331372    1.094981
      8          9           0        3.983726    1.289339    0.659989
      9          6           0        3.922255   -0.963045    1.243452
     10          9           0        3.124767   -1.992589    1.600502
     11          6           0        4.693274   -1.350389   -0.029721
     12          8           0        5.649609   -2.221525    0.263214
     13          8           0        4.421847   -0.927787   -1.119284
     14          9           0        4.800996   -0.750383    2.248591
     15          6           0        1.865503    0.413403    0.148294
     16          9           0        2.241832    0.893242   -1.046870
     17          6           0        1.021681   -0.853321   -0.090760
     18          9           0        1.769516   -1.803252   -0.671041
     19          6           0       -0.196147   -0.573771   -1.005532
     20          7           0       -1.357532   -0.410766   -0.321398
     21          6           0       -2.626001   -0.127591   -0.852849
     22          6           0       -2.854627    0.043067   -2.218082
     23          6           0       -4.148026    0.326704   -2.660441
     24          6           0       -4.382179    0.501993   -4.067727
     25          7           0       -4.576752    0.643501   -5.198275
     26          6           0       -5.214750    0.443105   -1.773528
     27          6           0       -4.967711    0.268779   -0.413352
     28          6           0       -6.045424    0.381485    0.529584
     29          7           0       -6.910548    0.471055    1.290989
     30          6           0       -3.684493   -0.014741    0.047329
     31          8           0       -0.037690   -0.521860   -2.204540
     32          9           0        0.602833   -1.302176    1.126890
     33          8           0        0.989936    1.339069    0.754524
     34          1           0        6.092739   -2.472605   -0.564948
     35          1           0       -1.301273   -0.513012    0.682168
     36          1           0       -2.038914   -0.044887   -2.920221
     37          1           0       -6.212325    0.663048   -2.131383
     38          1           0       -3.516269   -0.145885    1.110769
 ---------------------------------------------------------------------

 Alpha  occ. eigenvalues --  -24.83852 -24.83636 -24.83423 -24.83348 -24.83135
 Alpha  occ. eigenvalues --  -24.83061 -24.82849 -24.82718 -24.82586 -24.82246
 Alpha  occ. eigenvalues --  -19.32233 -19.31070 -19.25783 -19.24455 -14.49524
 Alpha  occ. eigenvalues --  -14.43140 -14.42736 -10.52757 -10.48798 -10.48708
 Alpha  occ. eigenvalues --  -10.48302 -10.47536 -10.44313 -10.42803 -10.42109
 Alpha  occ. eigenvalues --  -10.36140 -10.34253 -10.33988 -10.32543 -10.32197
 Alpha  occ. eigenvalues --  -10.32126 -10.31928 -10.31314  -1.41326  -1.39460
 Alpha  occ. eigenvalues --   -1.39029  -1.38310  -1.36327  -1.34323  -1.33471
 Alpha  occ. eigenvalues --   -1.32935  -1.32485  -1.32233  -1.23421  -1.22292
 Alpha  occ. eigenvalues --   -1.17593  -1.14551  -1.07668  -1.01689  -1.00682
 Alpha  occ. eigenvalues --   -0.98512  -0.95172  -0.91703  -0.90338  -0.89043
 Alpha  occ. eigenvalues --   -0.87231  -0.83392  -0.79470  -0.77989  -0.77461
 Alpha  occ. eigenvalues --   -0.76044  -0.74123  -0.73263  -0.71177  -0.70814
 Alpha  occ. eigenvalues --   -0.69508  -0.69309  -0.69048  -0.68088  -0.67909
 Alpha  occ. eigenvalues --   -0.66732  -0.66425  -0.65739  -0.64099  -0.63907
 Alpha  occ. eigenvalues --   -0.62975  -0.60984  -0.59149  -0.59020  -0.58665
 Alpha  occ. eigenvalues --   -0.58334  -0.57758  -0.56809  -0.56533  -0.56013
 Alpha  occ. eigenvalues --   -0.55899  -0.55246  -0.54909  -0.54783  -0.54560
 Alpha  occ. eigenvalues --   -0.54226  -0.53799  -0.53634  -0.52832  -0.52398
 Alpha  occ. eigenvalues --   -0.52156  -0.51877  -0.51342  -0.51005  -0.50757
 Alpha  occ. eigenvalues --   -0.50590  -0.49853  -0.49360  -0.49117  -0.48916
 Alpha  occ. eigenvalues --   -0.48710  -0.47416  -0.45768  -0.45385  -0.45177
 Alpha  occ. eigenvalues --   -0.44594  -0.44282  -0.43607  -0.42552  -0.42198
 Alpha  occ. eigenvalues --   -0.42129  -0.41400  -0.39548  -0.38183  -0.36468
 Alpha  occ. eigenvalues --   -0.34338  -0.32177
 Alpha virt. eigenvalues --   -0.03623  -0.02633   0.00752   0.02270   0.05696
 Alpha virt. eigenvalues --    0.06755   0.08480   0.09724   0.10197   0.10621
 Alpha virt. eigenvalues --    0.11001   0.12371   0.13196   0.14291   0.15948

 Mulliken charges:
               1
     1  F   -0.240258
     2  C    0.757310
     3  F   -0.245532
     4  C    0.522272
     5  F   -0.259344
     6  F   -0.246948
     7  C    0.149024
     8  F   -0.293043
     9  C    0.563845
    10  F   -0.261289
    11  C    0.569673
    12  O   -0.471392
    13  O   -0.429352
    14  F   -0.266166
    15  C    0.532735
    16  F   -0.247198
    17  C    0.563729
    18  F   -0.259615
    19  C    0.548573
    20  N   -0.640917
    21  C    0.326255
    22  C   -0.077671
    23  C    0.079396
    24  C    0.235454
    25  N   -0.455173
    26  C   -0.070189
    27  C    0.098329
    28  C    0.228037
    29  N   -0.454601
    30  C   -0.117510
    31  O   -0.475425
    32  F   -0.288930
    33  O   -0.520258
    34  H    0.359880
    35  H    0.301775
    36  H    0.180915
    37  H    0.157839
    38  H    0.145771
 Sum of Mulliken charges =   0.00000

 Dipole moment (field-independent basis, Debye):
    X=              4.5778    Y=             -2.7409    Z=              3.4245  Tot=              6.3400
 Quadrupole moment (field-independent basis, Debye-Ang):
   XX=           -191.2170   YY=           -174.5405   ZZ=           -212.6224
   XY=             -6.3487   XZ=             -7.6818   YZ=              3.8054

 Normal termination of Gaussian 09 at Wed Feb  5 06:07:09 2025.
