 Gaussian 09, Revision D.01,
 Gaussian 09:  ES64L-G09RevD.01 24-Apr-2013

 ----------------------------------------------------------------------
 #p CAM-B3LYP/6-31G(d,p) SCRF=(PCM,Solvent=Generic,Read) NoSymm out=wfn
 ----------------------------------------------------------------------

 ------------------
 Title A903371601_0
 ------------------
 Symbolic Z-matrix:
 Charge =  0 Multiplicity = 1

                          Input orientation:
 ---------------------------------------------------------------------
 Center     Atomic      Atomic             Coordinates (Angstroms)
 Number     Number       Type             X           Y           Z
 ---------------------------------------------------------------------
      1          6           0        4.128208    0.630768   -1.568576
      2          6           0        3.360130    1.743831   -0.871822
      3          6           0        2.780995    1.324020    0.484044
      4          7           0        1.731796    0.308481    0.368391
      5          6           0        2.057038   -1.006980    0.631866
      6          8           0        3.192895   -1.351452    0.961288
      7          7           0        1.023509   -1.913543    0.528889
      8          6           0        1.296500   -3.297240    0.880724
      9          6           0       -0.281486   -1.546231    0.292721
     10          8           0       -1.212917   -2.330171    0.470371
     11          7           0       -0.490878   -0.256760   -0.116149
     12          6           0       -1.848621    0.164547   -0.420508
     13          9           0       -2.539125   -0.865942   -0.980699
     14          9           0       -1.776377    1.068770   -1.452614
     15          6           0       -2.669066    0.820694    0.729031
     16          9           0       -1.811797    1.588031    1.490877
     17          8           0       -3.627923    1.795362    0.282097
     18          6           0       -4.769739    1.256237   -0.330286
     19          9           0       -5.481508    2.260081   -0.873517
     20          9           0       -5.529237    0.637298    0.585666
     21          9           0       -4.430915    0.395488   -1.297106
     22          6           0       -3.213708   -0.255183    1.667259
     23          9           0       -3.954661   -1.185027    1.034623
     24          9           0       -2.217950   -0.886293    2.330262
     25          9           0       -4.003850    0.301401    2.621019
     26          6           0        0.462254    0.722905    0.016481
     27          8           0        0.200930    1.914035   -0.150205
     28          1           0        3.469667   -0.200245   -1.838473
     29          1           0        4.582314    1.007862   -2.490531
     30          1           0        4.929528    0.246265   -0.929828
     31          1           0        4.040574    2.588583   -0.711870
     32          1           0        2.563305    2.098008   -1.535583
     33          1           0        2.352997    2.208446    0.971807
     34          1           0        3.586423    0.970070    1.137437
     35          1           0        1.216879   -3.397770    1.967867
     36          1           0        2.305521   -3.585598    0.570966
     37          1           0        0.578296   -3.972752    0.406554
 ---------------------------------------------------------------------

 SCF Done:  E(RCAM-B3LYP) =  -1788.39661137     A.U. after   13 cycles

 Alpha  occ. eigenvalues --  -24.83876 -24.83529 -24.83469 -24.83365 -24.83077
 Alpha  occ. eigenvalues --  -24.82928 -24.82427 -24.82296 -24.81489 -19.32956
 Alpha  occ. eigenvalues --  -19.22917 -19.22908 -19.22523 -14.52190 -14.49635
 Alpha  occ. eigenvalues --  -14.49444 -10.59561 -10.55103 -10.52748 -10.48825
 Alpha  occ. eigenvalues --  -10.44838 -10.44811 -10.43766 -10.30807 -10.30720
 Alpha  occ. eigenvalues --  -10.26224 -10.24733  -1.43380  -1.41583  -1.38334
 Alpha  occ. eigenvalues --   -1.35141  -1.33892  -1.33349  -1.32579  -1.31942
 Alpha  occ. eigenvalues --   -1.30731  -1.21557  -1.20297  -1.16510  -1.16229
 Alpha  occ. eigenvalues --   -1.08562  -1.06307  -1.04805  -0.92767  -0.88132
 Alpha  occ. eigenvalues --   -0.84748  -0.82668  -0.82212  -0.80551  -0.77868
 Alpha  occ. eigenvalues --   -0.75431  -0.75040  -0.73227  -0.72766  -0.71311
 Alpha  occ. eigenvalues --   -0.70974  -0.70022  -0.68751  -0.68482  -0.67484
 Alpha  occ. eigenvalues --   -0.66708  -0.64668  -0.63596  -0.61788  -0.59404
 Alpha  occ. eigenvalues --   -0.58555  -0.57276  -0.57093  -0.56911  -0.56144
 Alpha  occ. eigenvalues --   -0.55818  -0.55014  -0.54851  -0.54806  -0.54488
 Alpha  occ. eigenvalues --   -0.53970  -0.53689  -0.53523  -0.53260  -0.52498
 Alpha  occ. eigenvalues --   -0.52214  -0.51527  -0.51310  -0.50887  -0.50450
 Alpha  occ. eigenvalues --   -0.50071  -0.49983  -0.49542  -0.48887  -0.48584
 Alpha  occ. eigenvalues --   -0.48280  -0.47917  -0.47285  -0.46891  -0.46697
 Alpha  occ. eigenvalues --   -0.43651  -0.42319  -0.41212  -0.40783  -0.38891
 Alpha  occ. eigenvalues --   -0.38426  -0.37679  -0.35770  -0.34963  -0.34763
 Alpha virt. eigenvalues --    0.01707   0.02419   0.06210   0.07150   0.12380
 Alpha virt. eigenvalues --    0.14454   0.15358   0.15961   0.16994   0.17408
 Alpha virt. eigenvalues --    0.18626   0.19374   0.19611   0.20797   0.21030

 Mulliken charges:
               1
     1  C   -0.319679
     2  C   -0.187058
     3  C   -0.063655
     4  N   -0.574819
     5  C    0.825093
     6  O   -0.526788
     7  N   -0.565905
     8  C   -0.182329
     9  C    0.820596
    10  O   -0.510029
    11  N   -0.624483
    12  C    0.760023
    13  F   -0.250743
    14  F   -0.273992
    15  C    0.434825
    16  F   -0.272006
    17  O   -0.497205
    18  C    0.975971
    19  F   -0.238399
    20  F   -0.240398
    21  F   -0.233709
    22  C    0.819257
    23  F   -0.244572
    24  F   -0.245024
    25  F   -0.261068
    26  C    0.845352
    27  O   -0.516011
    28  H    0.104064
    29  H    0.110239
    30  H    0.115592
    31  H    0.116753
    32  H    0.120338
    33  H    0.146242
    34  H    0.154064
    35  H    0.155715
    36  H    0.162367
    37  H    0.161379
 Sum of Mulliken charges =   0.00000

 Dipole moment (field-independent basis, Debye):
    X=              2.6493    Y=             -1.0568    Z=             -0.1192  Tot=              2.8548
 Quadrupole moment (field-independent basis, Debye-Ang):
   XX=           -152.7213   YY=           -149.1479   ZZ=           -146.7302
   XY=              1.9748   XZ=             -0.7611   YZ=              1.2657

 Normal termination of Gaussian 09 at Sun Mar  3 17:58:32 2024.
