 Gaussian 09, Revision D.01,
 Gaussian 09:  ES64L-G09RevD.01 24-Apr-2013

 ----------------------------------------------------------------------
 #p CAM-B3LYP/6-31G(d,p) SCRF=(PCM,Solvent=Generic,Read) NoSymm out=wfn
 ----------------------------------------------------------------------

 ----------------
 Title A1170120_0
 ----------------
 Symbolic Z-matrix:
 Charge =  0 Multiplicity = 1

                          Input orientation:
 ---------------------------------------------------------------------
 Center     Atomic      Atomic             Coordinates (Angstroms)
 Number     Number       Type             X           Y           Z
 ---------------------------------------------------------------------
      1          6           0       -0.011521    2.895318    0.549628
      2          6           0       -0.101931    3.193538   -0.914492
      3          6           0        0.815799    3.883252   -1.595346
      4          9           0        1.915005    4.359472   -0.977211
      5          9           0        0.632182    4.112035   -2.911621
      6          7           0       -0.001312    1.449978    0.750000
      7          6           0        1.217357    0.809818    0.819695
      8          8           0        2.282326    1.420645    0.710726
      9          7           0        1.183945   -0.555575    1.009597
     10          6           0        0.017076   -1.281849    1.113318
     11          8           0        0.021201   -2.505385    1.261931
     12          7           0       -1.159931   -0.567899    1.033269
     13          6           0       -1.211876    0.796436    0.844306
     14          8           0       -2.281427    1.402577    0.756005
     15          6           0       -2.418510   -1.298783    1.138385
     16          6           0       -2.818547   -1.797000   -0.215316
     17          6           0       -3.956204   -1.463932   -0.828747
     18          9           0       -4.231018   -1.981251   -2.043446
     19          9           0       -4.833312   -0.625919   -0.240916
     20          6           0        2.452585   -1.272165    1.089051
     21          6           0        2.903637   -1.638762   -0.290411
     22          6           0        3.107547   -2.891858   -0.702319
     23          9           0        3.530387   -3.115196   -1.963256
     24          9           0        2.904601   -3.930592    0.132530
     25          1           0       -0.876731    3.336235    1.057984
     26          1           0        0.880948    3.343185    1.001041
     27          1           0       -0.984389    2.848784   -1.445354
     28          1           0       -2.297671   -2.154552    1.812536
     29          1           0       -3.189620   -0.656981    1.579223
     30          1           0       -2.151047   -2.494146   -0.713145
     31          1           0        2.345612   -2.154940    1.729460
     32          1           0        3.212435   -0.634702    1.555624
     33          1           0        3.102403   -0.829786   -0.987154
 ---------------------------------------------------------------------

 SCF Done:  E(RCAM-B3LYP) =  -1451.12316256     A.U. after   13 cycles

 Alpha  occ. eigenvalues --  -24.81954 -24.81954 -24.81954 -24.81734 -24.81734
 Alpha  occ. eigenvalues --  -24.81734 -19.22307 -19.22306 -19.22305 -14.49228
 Alpha  occ. eigenvalues --  -14.49228 -14.49226 -10.44076 -10.44075 -10.44075
 Alpha  occ. eigenvalues --  -10.43593 -10.43592 -10.43591 -10.32295 -10.32295
 Alpha  occ. eigenvalues --  -10.32294 -10.27973 -10.27972 -10.27971  -1.35343
 Alpha  occ. eigenvalues --   -1.35342  -1.35342  -1.30995  -1.30994  -1.30994
 Alpha  occ. eigenvalues --   -1.20419  -1.15646  -1.15645  -1.07214  -1.04889
 Alpha  occ. eigenvalues --   -1.04889  -0.90795  -0.88950  -0.88949  -0.82230
 Alpha  occ. eigenvalues --   -0.80866  -0.80866  -0.74836  -0.74836  -0.71999
 Alpha  occ. eigenvalues --   -0.70423  -0.69272  -0.69272  -0.65364  -0.64935
 Alpha  occ. eigenvalues --   -0.64935  -0.62889  -0.61495  -0.60372  -0.60371
 Alpha  occ. eigenvalues --   -0.58974  -0.58973  -0.58680  -0.57356  -0.55798
 Alpha  occ. eigenvalues --   -0.55798  -0.54119  -0.54088  -0.54088  -0.52035
 Alpha  occ. eigenvalues --   -0.52035  -0.51764  -0.51724  -0.51724  -0.51649
 Alpha  occ. eigenvalues --   -0.50710  -0.50710  -0.49663  -0.49479  -0.49478
 Alpha  occ. eigenvalues --   -0.47462  -0.47296  -0.47296  -0.45791  -0.45785
 Alpha  occ. eigenvalues --   -0.45785  -0.38609  -0.38608  -0.36212  -0.35564
 Alpha  occ. eigenvalues --   -0.35563  -0.34479  -0.32310  -0.31836  -0.31836
 Alpha virt. eigenvalues --    0.03049   0.03049   0.06015   0.06778   0.06778
 Alpha virt. eigenvalues --    0.13882   0.14923   0.15773   0.15774   0.16106
 Alpha virt. eigenvalues --    0.16107   0.16264   0.18945   0.18946   0.18964

 Mulliken charges:
               1
     1  C   -0.105113
     2  C   -0.166792
     3  C    0.557969
     4  F   -0.244144
     5  F   -0.250733
     6  N   -0.552388
     7  C    0.812309
     8  O   -0.523273
     9  N   -0.552318
    10  C    0.812381
    11  O   -0.523335
    12  N   -0.552312
    13  C    0.812264
    14  O   -0.523302
    15  C   -0.105085
    16  C   -0.166755
    17  C    0.557898
    18  F   -0.250708
    19  F   -0.244120
    20  C   -0.104982
    21  C   -0.166844
    22  C    0.557998
    23  F   -0.250727
    24  F   -0.244148
    25  H    0.167458
    26  H    0.163632
    27  H    0.141046
    28  H    0.167414
    29  H    0.163589
    30  H    0.141085
    31  H    0.163534
    32  H    0.167412
    33  H    0.141088
 Sum of Mulliken charges =   0.00000

 Dipole moment (field-independent basis, Debye):
    X=              0.0156    Y=              0.2129    Z=              1.5751  Tot=              1.5895
 Quadrupole moment (field-independent basis, Debye-Ang):
   XX=           -138.7652   YY=           -138.5765   ZZ=           -127.9587
   XY=              0.0164   XZ=              0.0985   YZ=              1.4352

 Normal termination of Gaussian 09 at Mon Mar  4 22:24:48 2024.
