 Gaussian 09, Revision D.01,
 Gaussian 09:  ES64L-G09RevD.01 24-Apr-2013

 ----------------------------------------------------------------------
 #p CAM-B3LYP/6-31G(d,p) SCRF=(PCM,Solvent=Generic,Read) NoSymm out=wfn
 ----------------------------------------------------------------------

 -----------------
 Title A1170120_p1
 -----------------
 Symbolic Z-matrix:
 Charge =  1 Multiplicity = 2

                          Input orientation:
 ---------------------------------------------------------------------
 Center     Atomic      Atomic             Coordinates (Angstroms)
 Number     Number       Type             X           Y           Z
 ---------------------------------------------------------------------
      1          6           0       -0.011521    2.895318    0.549628
      2          6           0       -0.101931    3.193538   -0.914492
      3          6           0        0.815799    3.883252   -1.595346
      4          9           0        1.915005    4.359472   -0.977211
      5          9           0        0.632182    4.112035   -2.911621
      6          7           0       -0.001312    1.449978    0.750000
      7          6           0        1.217357    0.809818    0.819695
      8          8           0        2.282326    1.420645    0.710726
      9          7           0        1.183945   -0.555575    1.009597
     10          6           0        0.017076   -1.281849    1.113318
     11          8           0        0.021201   -2.505385    1.261931
     12          7           0       -1.159931   -0.567899    1.033269
     13          6           0       -1.211876    0.796436    0.844306
     14          8           0       -2.281427    1.402577    0.756005
     15          6           0       -2.418510   -1.298783    1.138385
     16          6           0       -2.818547   -1.797000   -0.215316
     17          6           0       -3.956204   -1.463932   -0.828747
     18          9           0       -4.231018   -1.981251   -2.043446
     19          9           0       -4.833312   -0.625919   -0.240916
     20          6           0        2.452585   -1.272165    1.089051
     21          6           0        2.903637   -1.638762   -0.290411
     22          6           0        3.107547   -2.891858   -0.702319
     23          9           0        3.530387   -3.115196   -1.963256
     24          9           0        2.904601   -3.930592    0.132530
     25          1           0       -0.876731    3.336235    1.057984
     26          1           0        0.880948    3.343185    1.001041
     27          1           0       -0.984389    2.848784   -1.445354
     28          1           0       -2.297671   -2.154552    1.812536
     29          1           0       -3.189620   -0.656981    1.579223
     30          1           0       -2.151047   -2.494146   -0.713145
     31          1           0        2.345612   -2.154940    1.729460
     32          1           0        3.212435   -0.634702    1.555624
     33          1           0        3.102403   -0.829786   -0.987154
 ---------------------------------------------------------------------

 SCF Done:  E(UCAM-B3LYP) =  -1450.80963293     A.U. after   52 cycles

 Alpha  occ. eigenvalues --  -24.94482 -24.94303 -24.89477 -24.89206 -24.88821
 Alpha  occ. eigenvalues --  -24.88587 -19.30144 -19.29829 -19.29404 -14.58456
 Alpha  occ. eigenvalues --  -14.56797 -14.56634 -10.59163 -10.52759 -10.52001
 Alpha  occ. eigenvalues --  -10.51319 -10.51258 -10.50600 -10.43028 -10.42025
 Alpha  occ. eigenvalues --  -10.39227 -10.38908 -10.36694 -10.35924  -1.47457
 Alpha  occ. eigenvalues --   -1.42995  -1.42658  -1.42042  -1.38256  -1.37649
 Alpha  occ. eigenvalues --   -1.28127  -1.23250  -1.22995  -1.14912  -1.13099
 Alpha  occ. eigenvalues --   -1.12263  -1.02911  -0.98018  -0.96773  -0.92085
 Alpha  occ. eigenvalues --   -0.88935  -0.88469  -0.83550  -0.82431  -0.80843
 Alpha  occ. eigenvalues --   -0.79638  -0.77416  -0.76652  -0.76260  -0.72485
 Alpha  occ. eigenvalues --   -0.72260  -0.71868  -0.71364  -0.69991  -0.69071
 Alpha  occ. eigenvalues --   -0.67538  -0.66382  -0.65823  -0.65636  -0.64172
 Alpha  occ. eigenvalues --   -0.63730  -0.63617  -0.62747  -0.61871  -0.61355
 Alpha  occ. eigenvalues --   -0.61137  -0.60932  -0.59581  -0.59041  -0.58930
 Alpha  occ. eigenvalues --   -0.58419  -0.58307  -0.57735  -0.57007  -0.56591
 Alpha  occ. eigenvalues --   -0.56255  -0.55648  -0.54593  -0.54273  -0.52961
 Alpha  occ. eigenvalues --   -0.52575  -0.47047  -0.45776  -0.45634  -0.44193
 Alpha  occ. eigenvalues --   -0.43183  -0.42893  -0.41811  -0.40380  -0.39626
 Alpha virt. eigenvalues --   -0.07351  -0.04436  -0.04166  -0.01685  -0.00888
 Alpha virt. eigenvalues --    0.03900   0.05501   0.06649   0.08334   0.08684
 Alpha virt. eigenvalues --    0.09277   0.09509   0.10166   0.11199   0.11754

  Beta  occ. eigenvalues --  -24.94301 -24.94112 -24.89407 -24.89131 -24.88761
  Beta  occ. eigenvalues --  -24.88525 -19.30096 -19.29837 -19.29352 -14.58297
  Beta  occ. eigenvalues --  -14.56728 -14.56611 -10.58884 -10.52660 -10.51918
  Beta  occ. eigenvalues --  -10.51339 -10.51270 -10.50614 -10.42605 -10.42041
  Beta  occ. eigenvalues --  -10.39233 -10.38915 -10.36519 -10.35787  -1.47049
  Beta  occ. eigenvalues --   -1.42596  -1.42502  -1.41910  -1.38101  -1.37518
  Beta  occ. eigenvalues --   -1.28025  -1.23198  -1.22907  -1.14773  -1.12879
  Beta  occ. eigenvalues --   -1.12169  -1.01586  -0.97555  -0.96347  -0.91633
  Beta  occ. eigenvalues --   -0.88724  -0.88313  -0.83333  -0.82321  -0.80548
  Beta  occ. eigenvalues --   -0.79573  -0.77230  -0.76429  -0.76125  -0.72363
  Beta  occ. eigenvalues --   -0.71912  -0.71651  -0.70229  -0.69376  -0.68936
  Beta  occ. eigenvalues --   -0.67406  -0.65790  -0.65426  -0.65296  -0.63887
  Beta  occ. eigenvalues --   -0.63360  -0.62587  -0.62167  -0.61606  -0.61288
  Beta  occ. eigenvalues --   -0.61023  -0.60763  -0.59445  -0.58959  -0.58361
  Beta  occ. eigenvalues --   -0.58272  -0.57844  -0.57622  -0.56844  -0.56398
  Beta  occ. eigenvalues --   -0.56165  -0.55452  -0.54459  -0.54151  -0.52826
  Beta  occ. eigenvalues --   -0.52492  -0.46044  -0.45668  -0.43802  -0.42743
  Beta  occ. eigenvalues --   -0.42575  -0.41700  -0.37017  -0.36561
  Beta virt. eigenvalues --   -0.30845  -0.04669  -0.04403  -0.03552  -0.00539
  Beta virt. eigenvalues --    0.00089   0.04542   0.05758   0.06847   0.08455
  Beta virt. eigenvalues --    0.08888   0.09441   0.09596   0.10292   0.11371

 Mulliken charges and spin densities:
               1          2
     1  C   -0.123038  -0.019589
     2  C   -0.081544   0.295927
     3  C    0.670949   0.152221
     4  F   -0.175204   0.043835
     5  F   -0.179144   0.046127
     6  N   -0.554598   0.065173
     7  C    0.824263  -0.007432
     8  O   -0.504513  -0.002297
     9  N   -0.552274   0.028566
    10  C    0.826000  -0.008480
    11  O   -0.494105   0.020855
    12  N   -0.556465   0.009703
    13  C    0.826403  -0.012604
    14  O   -0.499293   0.018679
    15  C   -0.117828  -0.007572
    16  C   -0.137752   0.126325
    17  C    0.607643   0.053504
    18  F   -0.218226   0.018304
    19  F   -0.214547   0.017269
    20  C   -0.115924  -0.007136
    21  C   -0.146521   0.097548
    22  C    0.604871   0.046468
    23  F   -0.223098   0.015117
    24  F   -0.217561   0.014682
    25  H    0.218549   0.007028
    26  H    0.205021   0.002112
    27  H    0.219529  -0.012354
    28  H    0.199550   0.004926
    29  H    0.187281   0.000710
    30  H    0.176215  -0.005399
    31  H    0.187756   0.000495
    32  H    0.193145   0.001487
    33  H    0.164459  -0.004198
 Sum of Mulliken charges =   1.00000   1.00000

 Dipole moment (field-independent basis, Debye):
    X=             -0.0339    Y=              4.9864    Z=             -1.1887  Tot=              5.1262
 Quadrupole moment (field-independent basis, Debye-Ang):
   XX=           -110.3855   YY=            -92.5502   ZZ=           -115.8968
   XY=              3.2907   XZ=             -0.7992   YZ=             -7.8876

 Normal termination of Gaussian 09 at Mon Mar  4 22:27:01 2024.
