 Gaussian 09, Revision D.01,
 Gaussian 09:  ES64L-G09RevD.01 24-Apr-2013

 ----------------------------------------------------------------------
 #p CAM-B3LYP/6-31G(d,p) SCRF=(PCM,Solvent=Generic,Read) NoSymm out=wfn
 ----------------------------------------------------------------------

 ------------------
 Title A135250780_0
 ------------------
 Symbolic Z-matrix:
 Charge =  0 Multiplicity = 1

                          Input orientation:
 ---------------------------------------------------------------------
 Center     Atomic      Atomic             Coordinates (Angstroms)
 Number     Number       Type             X           Y           Z
 ---------------------------------------------------------------------
      1          6           0        8.847739    0.037941    0.625472
      2          7           0        7.981360    1.146199    0.218304
      3          6           0        8.840301    2.319838    0.208162
      4          6           0        6.940388    1.350951    1.210906
      5          6           0        6.030634    0.162163    1.163748
      6          6           0        5.372361   -0.023831   -0.208583
      7          7           0        4.547099   -1.209394   -0.070030
      8         16           0        3.695449   -1.632030   -1.486061
      9          8           0        3.968037   -3.079498   -1.793615
     10          8           0        4.107710   -0.812381   -2.677118
     11          6           0        1.995363   -1.372916   -1.208977
     12          6           0        1.440082   -0.172632   -1.572345
     13          6           0        0.074988    0.045056   -1.344749
     14          6           0       -0.729999   -0.914526   -0.764173
     15          6           0       -0.137071   -2.107695   -0.412908
     16          6           0        1.207071   -2.351125   -0.625122
     17          6           0       -2.151243   -0.663491   -0.534070
     18          7           0       -2.901760    0.409157   -0.809797
     19          6           0       -4.189527    0.233286   -0.430555
     20          6           0       -4.224054   -1.040356    0.116226
     21          7           0       -2.985677   -1.556727    0.041241
     22          6           0       -5.449411   -1.471887    0.590955
     23          8           0       -5.560064   -2.607333    1.097345
     24          7           0       -6.546247   -0.687294    0.521018
     25          6           0       -6.463875    0.554619   -0.023949
     26          8           0       -7.528797    1.250677   -0.064162
     27          7           0       -5.294909    1.005203   -0.493448
     28          6           0       -5.231895    2.326572   -1.076523
     29          6           0       -4.931614    3.368292   -0.062226
     30          6           0       -3.837716    4.106392   -0.200485
     31          6           0       -7.828583   -1.137593    1.023865
     32          6           0       -8.641673   -1.840838    0.012409
     33          6           0       -9.018454   -3.094584    0.202426
     34         17           0        0.683301    0.000000    0.000000
     35          1           0        9.874314    0.166350    0.225968
     36          1           0        8.465969   -0.918666    0.214276
     37          1           0        8.912142    0.018908    1.723345
     38          1           0        9.239152    2.417506    1.259464
     39          1           0        9.719040    2.054781   -0.424446
     40          1           0        8.340225    3.238708   -0.092216
     41          1           0        7.390810    1.369675    2.231014
     42          1           0        6.400687    2.272196    0.983437
     43          1           0        6.574211   -0.784986    1.354241
     44          1           0        5.180640    0.249743    1.878922
     45          1           0        6.152252   -0.165025   -0.996321
     46          1           0        4.770337    0.879079   -0.462133
     47          1           0        3.893579   -1.023815    0.730776
     48          1           0        2.078944    0.568936   -2.024630
     49          1           0       -0.337768    0.983323   -1.633737
     50          1           0       -0.752620   -2.865292    0.040095
     51          1           0        1.684164   -3.280321   -0.355127
     52          1           0       -2.738432   -2.510585    0.384726
     53          1           0       -6.200928    2.594571   -1.592344
     54          1           0       -4.482986    2.369150   -1.912075
     55          1           0       -5.593529    3.517328    0.767971
     56          1           0       -3.606344    4.876717    0.540295
     57          1           0       -3.146430    3.982092   -1.030119
     58          1           0       -7.606938   -1.777742    1.908798
     59          1           0       -8.336756   -0.231198    1.426006
     60          1           0       -8.923380   -1.311417   -0.885117
     61          1           0       -9.608377   -3.594595   -0.539036
     62          1           0       -8.737989   -3.635638    1.105259
     63          1           0       -0.683301    0.000000    0.000000
 ---------------------------------------------------------------------

 SCF Done:  E(RCAM-B3LYP) =  -2342.16886260     A.U. after   16 cycles

 Alpha  occ. eigenvalues -- -101.70806 -89.18828 -19.20473 -19.19713 -19.18527
 Alpha  occ. eigenvalues --  -19.17441 -14.48564 -14.48371 -14.46667 -14.45198
 Alpha  occ. eigenvalues --  -14.40858 -14.40056 -10.40510 -10.37086 -10.36671
 Alpha  occ. eigenvalues --  -10.34953 -10.34776 -10.34682 -10.32335 -10.31298
 Alpha  occ. eigenvalues --  -10.29970 -10.29669 -10.29637 -10.29522 -10.28653
 Alpha  occ. eigenvalues --  -10.27976 -10.27789 -10.27777 -10.27681 -10.26859
 Alpha  occ. eigenvalues --  -10.26782 -10.26235 -10.25796 -10.24981  -9.63866
 Alpha  occ. eigenvalues --   -8.21325  -7.40089  -7.39671  -7.38878  -6.17903
 Alpha  occ. eigenvalues --   -6.17823  -6.17756  -1.27916  -1.17002  -1.16913
 Alpha  occ. eigenvalues --   -1.13519  -1.10726  -1.06081  -1.04155  -1.02293
 Alpha  occ. eigenvalues --   -1.02251  -1.01369  -0.99538  -0.97090  -0.94632
 Alpha  occ. eigenvalues --   -0.90256  -0.87348  -0.87170  -0.86942  -0.84856
 Alpha  occ. eigenvalues --   -0.82738  -0.80295  -0.78223  -0.77938  -0.77458
 Alpha  occ. eigenvalues --   -0.77115  -0.74288  -0.73608  -0.71776  -0.70911
 Alpha  occ. eigenvalues --   -0.69766  -0.69247  -0.67820  -0.65587  -0.65269
 Alpha  occ. eigenvalues --   -0.64316  -0.63122  -0.61998  -0.61945  -0.60200
 Alpha  occ. eigenvalues --   -0.59456  -0.58277  -0.58072  -0.57507  -0.56304
 Alpha  occ. eigenvalues --   -0.56160  -0.55953  -0.55191  -0.54522  -0.54088
 Alpha  occ. eigenvalues --   -0.53428  -0.52789  -0.52435  -0.51911  -0.51340
 Alpha  occ. eigenvalues --   -0.51299  -0.51106  -0.50466  -0.49208  -0.48636
 Alpha  occ. eigenvalues --   -0.48314  -0.48054  -0.47362  -0.46916  -0.46277
 Alpha  occ. eigenvalues --   -0.46026  -0.45306  -0.44436  -0.44285  -0.43640
 Alpha  occ. eigenvalues --   -0.43076  -0.42371  -0.41933  -0.41913  -0.40947
 Alpha  occ. eigenvalues --   -0.40558  -0.39899  -0.38851  -0.38564  -0.36328
 Alpha  occ. eigenvalues --   -0.36024  -0.35556  -0.34647  -0.34553  -0.33763
 Alpha  occ. eigenvalues --   -0.32841  -0.32515  -0.32366  -0.31771  -0.30634
 Alpha  occ. eigenvalues --   -0.30407  -0.28521  -0.28192  -0.24580
 Alpha virt. eigenvalues --   -0.02386   0.02580   0.04639   0.05856   0.06572
 Alpha virt. eigenvalues --    0.06794   0.07635   0.08548   0.09827   0.10039
 Alpha virt. eigenvalues --    0.10900   0.12327   0.12725   0.13112   0.15511

 Mulliken charges:
               1
     1  C   -0.182814
     2  N   -0.403644
     3  C   -0.158812
     4  C   -0.034668
     5  C   -0.224102
     6  C   -0.044441
     7  N   -0.610777
     8  S    1.162941
     9  O   -0.544311
    10  O   -0.578864
    11  C   -0.265141
    12  C   -0.188088
    13  C   -0.169895
    14  C   -0.152768
    15  C   -0.102525
    16  C   -0.124698
    17  C    0.501577
    18  N   -0.618645
    19  C    0.532008
    20  C    0.254886
    21  N   -0.672799
    22  C    0.611378
    23  O   -0.592843
    24  N   -0.554407
    25  C    0.775453
    26  O   -0.594886
    27  N   -0.580957
    28  C   -0.122632
    29  C   -0.023259
    30  C   -0.239751
    31  C   -0.092538
    32  C   -0.024108
    33  C   -0.231441
    34  Cl   0.482570
    35  H    0.111897
    36  H    0.125109
    37  H    0.094629
    38  H    0.070881
    39  H    0.111125
    40  H    0.112672
    41  H    0.081318
    42  H    0.105594
    43  H    0.133382
    44  H    0.081631
    45  H    0.171442
    46  H    0.096502
    47  H    0.282803
    48  H    0.193637
    49  H    0.208348
    50  H    0.093959
    51  H    0.139172
    52  H    0.305095
    53  H    0.158218
    54  H    0.136839
    55  H    0.120224
    56  H    0.105019
    57  H    0.106933
    58  H    0.136941
    59  H    0.149878
    60  H    0.109765
    61  H    0.104349
    62  H    0.112440
    63  H    0.053199
 Sum of Mulliken charges =   0.00000

 Dipole moment (field-independent basis, Debye):
    X=              2.8258    Y=              6.0436    Z=              4.9313  Tot=              8.2963
 Quadrupole moment (field-independent basis, Debye-Ang):
   XX=           -253.7880   YY=           -227.2899   ZZ=           -223.3635
   XY=             22.6736   XZ=             33.2250   YZ=            -11.1091

 Normal termination of Gaussian 09 at Mon Mar  4 23:26:40 2024.
