 Gaussian 09, Revision D.01,
 Gaussian 09:  ES64L-G09RevD.01 24-Apr-2013

 ----------------------------------------------------------------------
 #p CAM-B3LYP/6-31G(d,p) SCRF=(PCM,Solvent=Generic,Read) NoSymm out=wfn
 ----------------------------------------------------------------------

 -------------------
 Title A135250780_p1
 -------------------
 Symbolic Z-matrix:
 Charge =  1 Multiplicity = 2

                          Input orientation:
 ---------------------------------------------------------------------
 Center     Atomic      Atomic             Coordinates (Angstroms)
 Number     Number       Type             X           Y           Z
 ---------------------------------------------------------------------
      1          6           0        8.847739    0.037941    0.625472
      2          7           0        7.981360    1.146199    0.218304
      3          6           0        8.840301    2.319838    0.208162
      4          6           0        6.940388    1.350951    1.210906
      5          6           0        6.030634    0.162163    1.163748
      6          6           0        5.372361   -0.023831   -0.208583
      7          7           0        4.547099   -1.209394   -0.070030
      8         16           0        3.695449   -1.632030   -1.486061
      9          8           0        3.968037   -3.079498   -1.793615
     10          8           0        4.107710   -0.812381   -2.677118
     11          6           0        1.995363   -1.372916   -1.208977
     12          6           0        1.440082   -0.172632   -1.572345
     13          6           0        0.074988    0.045056   -1.344749
     14          6           0       -0.729999   -0.914526   -0.764173
     15          6           0       -0.137071   -2.107695   -0.412908
     16          6           0        1.207071   -2.351125   -0.625122
     17          6           0       -2.151243   -0.663491   -0.534070
     18          7           0       -2.901760    0.409157   -0.809797
     19          6           0       -4.189527    0.233286   -0.430555
     20          6           0       -4.224054   -1.040356    0.116226
     21          7           0       -2.985677   -1.556727    0.041241
     22          6           0       -5.449411   -1.471887    0.590955
     23          8           0       -5.560064   -2.607333    1.097345
     24          7           0       -6.546247   -0.687294    0.521018
     25          6           0       -6.463875    0.554619   -0.023949
     26          8           0       -7.528797    1.250677   -0.064162
     27          7           0       -5.294909    1.005203   -0.493448
     28          6           0       -5.231895    2.326572   -1.076523
     29          6           0       -4.931614    3.368292   -0.062226
     30          6           0       -3.837716    4.106392   -0.200485
     31          6           0       -7.828583   -1.137593    1.023865
     32          6           0       -8.641673   -1.840838    0.012409
     33          6           0       -9.018454   -3.094584    0.202426
     34         17           0        0.683301    0.000000    0.000000
     35          1           0        9.874314    0.166350    0.225968
     36          1           0        8.465969   -0.918666    0.214276
     37          1           0        8.912142    0.018908    1.723345
     38          1           0        9.239152    2.417506    1.259464
     39          1           0        9.719040    2.054781   -0.424446
     40          1           0        8.340225    3.238708   -0.092216
     41          1           0        7.390810    1.369675    2.231014
     42          1           0        6.400687    2.272196    0.983437
     43          1           0        6.574211   -0.784986    1.354241
     44          1           0        5.180640    0.249743    1.878922
     45          1           0        6.152252   -0.165025   -0.996321
     46          1           0        4.770337    0.879079   -0.462133
     47          1           0        3.893579   -1.023815    0.730776
     48          1           0        2.078944    0.568936   -2.024630
     49          1           0       -0.337768    0.983323   -1.633737
     50          1           0       -0.752620   -2.865292    0.040095
     51          1           0        1.684164   -3.280321   -0.355127
     52          1           0       -2.738432   -2.510585    0.384726
     53          1           0       -6.200928    2.594571   -1.592344
     54          1           0       -4.482986    2.369150   -1.912075
     55          1           0       -5.593529    3.517328    0.767971
     56          1           0       -3.606344    4.876717    0.540295
     57          1           0       -3.146430    3.982092   -1.030119
     58          1           0       -7.606938   -1.777742    1.908798
     59          1           0       -8.336756   -0.231198    1.426006
     60          1           0       -8.923380   -1.311417   -0.885117
     61          1           0       -9.608377   -3.594595   -0.539036
     62          1           0       -8.737989   -3.635638    1.105259
     63          1           0       -0.683301    0.000000    0.000000
 ---------------------------------------------------------------------

 SCF Done:  E(UCAM-B3LYP) =  -2341.93808185     A.U. after   25 cycles

 Alpha  occ. eigenvalues -- -101.80742 -89.24585 -19.27778 -19.26422 -19.26034
 Alpha  occ. eigenvalues --  -19.25335 -14.59612 -14.57099 -14.54363 -14.51178
 Alpha  occ. eigenvalues --  -14.50382 -14.42798 -10.48257 -10.48059 -10.45896
 Alpha  occ. eigenvalues --  -10.45768 -10.44771 -10.44593 -10.43920 -10.42839
 Alpha  occ. eigenvalues --  -10.37758 -10.37446 -10.36903 -10.36706 -10.35346
 Alpha  occ. eigenvalues --  -10.34119 -10.32016 -10.31693 -10.31296 -10.30433
 Alpha  occ. eigenvalues --  -10.30373 -10.30354 -10.30259 -10.29538  -9.73907
 Alpha  occ. eigenvalues --   -8.27093  -7.50129  -7.49727  -7.48887  -6.23653
 Alpha  occ. eigenvalues --   -6.23602  -6.23529  -1.38656  -1.26355  -1.23466
 Alpha  occ. eigenvalues --   -1.22612  -1.19954  -1.14444  -1.10511  -1.10088
 Alpha  occ. eigenvalues --   -1.09604  -1.07486  -1.06898  -1.04485  -1.03885
 Alpha  occ. eigenvalues --   -0.99316  -0.95412  -0.94005  -0.92958  -0.91906
 Alpha  occ. eigenvalues --   -0.89611  -0.87748  -0.86484  -0.85419  -0.83465
 Alpha  occ. eigenvalues --   -0.82264  -0.81523  -0.80455  -0.79922  -0.78914
 Alpha  occ. eigenvalues --   -0.77779  -0.76001  -0.73547  -0.73019  -0.72059
 Alpha  occ. eigenvalues --   -0.70883  -0.70118  -0.69840  -0.68698  -0.68230
 Alpha  occ. eigenvalues --   -0.67484  -0.66897  -0.66398  -0.65366  -0.63909
 Alpha  occ. eigenvalues --   -0.62631  -0.62032  -0.61642  -0.61256  -0.60598
 Alpha  occ. eigenvalues --   -0.60194  -0.59816  -0.59021  -0.57769  -0.57617
 Alpha  occ. eigenvalues --   -0.57412  -0.56599  -0.56363  -0.55846  -0.55146
 Alpha  occ. eigenvalues --   -0.54784  -0.54029  -0.53906  -0.53529  -0.52611
 Alpha  occ. eigenvalues --   -0.50820  -0.50522  -0.50205  -0.48893  -0.48319
 Alpha  occ. eigenvalues --   -0.47884  -0.47649  -0.47231  -0.46473  -0.46205
 Alpha  occ. eigenvalues --   -0.45382  -0.45326  -0.44768  -0.44368  -0.43959
 Alpha  occ. eigenvalues --   -0.43119  -0.42285  -0.42109  -0.41158  -0.40396
 Alpha  occ. eigenvalues --   -0.40098  -0.39594  -0.39436  -0.38156  -0.38124
 Alpha  occ. eigenvalues --   -0.36844  -0.36595  -0.35641  -0.31278
 Alpha virt. eigenvalues --   -0.11633  -0.07106  -0.04251  -0.01967  -0.01135
 Alpha virt. eigenvalues --    0.00142   0.01187   0.01875   0.02519   0.03029
 Alpha virt. eigenvalues --    0.03491   0.05086   0.06205   0.07739   0.08975

  Beta  occ. eigenvalues -- -101.80661 -89.24584 -19.27375 -19.26303 -19.26032
  Beta  occ. eigenvalues --  -19.25328 -14.59467 -14.57029 -14.54402 -14.51081
  Beta  occ. eigenvalues --  -14.50386 -14.42798 -10.48274 -10.48050 -10.46003
  Beta  occ. eigenvalues --  -10.45765 -10.44709 -10.44181 -10.43776 -10.42338
  Beta  occ. eigenvalues --  -10.37801 -10.37449 -10.36810 -10.36748 -10.35344
  Beta  occ. eigenvalues --  -10.34119 -10.32011 -10.31693 -10.31296 -10.30434
  Beta  occ. eigenvalues --  -10.30373 -10.30354 -10.30259 -10.29536  -9.73815
  Beta  occ. eigenvalues --   -8.27093  -7.50060  -7.49566  -7.48792  -6.23652
  Beta  occ. eigenvalues --   -6.23602  -6.23529  -1.37891  -1.26016  -1.23243
  Beta  occ. eigenvalues --   -1.22607  -1.19497  -1.14244  -1.10258  -1.09692
  Beta  occ. eigenvalues --   -1.09175  -1.07174  -1.06888  -1.04481  -1.03609
  Beta  occ. eigenvalues --   -0.98581  -0.95196  -0.93718  -0.92923  -0.91768
  Beta  occ. eigenvalues --   -0.89525  -0.87424  -0.86274  -0.85303  -0.83184
  Beta  occ. eigenvalues --   -0.82209  -0.81322  -0.80451  -0.79733  -0.78721
  Beta  occ. eigenvalues --   -0.77700  -0.75716  -0.73542  -0.72887  -0.71410
  Beta  occ. eigenvalues --   -0.70774  -0.69865  -0.69613  -0.68478  -0.68064
  Beta  occ. eigenvalues --   -0.67400  -0.66301  -0.66220  -0.65039  -0.63716
  Beta  occ. eigenvalues --   -0.62323  -0.61885  -0.61504  -0.60888  -0.60508
  Beta  occ. eigenvalues --   -0.60052  -0.59275  -0.59004  -0.57723  -0.57454
  Beta  occ. eigenvalues --   -0.57288  -0.56538  -0.56083  -0.55815  -0.55141
  Beta  occ. eigenvalues --   -0.54561  -0.53810  -0.53804  -0.53015  -0.52597
  Beta  occ. eigenvalues --   -0.50819  -0.50254  -0.49847  -0.48893  -0.48139
  Beta  occ. eigenvalues --   -0.47640  -0.47575  -0.46940  -0.46292  -0.45576
  Beta  occ. eigenvalues --   -0.45339  -0.44764  -0.44364  -0.44186  -0.43934
  Beta  occ. eigenvalues --   -0.43082  -0.42007  -0.41831  -0.40836  -0.39787
  Beta  occ. eigenvalues --   -0.39253  -0.39120  -0.38193  -0.38107  -0.37134
  Beta  occ. eigenvalues --   -0.36651  -0.36318  -0.31278
  Beta virt. eigenvalues --   -0.21534  -0.10530  -0.05596  -0.03389  -0.01162
  Beta virt. eigenvalues --   -0.00926   0.00709   0.01631   0.01995   0.02564
  Beta virt. eigenvalues --    0.03103   0.03556   0.05437   0.06288   0.07989

 Mulliken charges and spin densities:
               1          2
     1  C   -0.185041  -0.000001
     2  N   -0.407721   0.000005
     3  C   -0.161670   0.000000
     4  C   -0.033972  -0.000025
     5  C   -0.223435  -0.000076
     6  C   -0.052193   0.000142
     7  N   -0.600447  -0.001373
     8  S    1.179922  -0.000783
     9  O   -0.521610   0.002254
    10  O   -0.559879   0.000809
    11  C   -0.257041  -0.034221
    12  C   -0.161532   0.098674
    13  C   -0.173618   0.005517
    14  C   -0.111708   0.219956
    15  C   -0.097643  -0.059618
    16  C   -0.093389   0.092524
    17  C    0.532986  -0.019240
    18  N   -0.582003   0.048167
    19  C    0.595109  -0.007359
    20  C    0.320907   0.334809
    21  N   -0.662693   0.054141
    22  C    0.651607  -0.074124
    23  O   -0.513805   0.158846
    24  N   -0.558360  -0.013743
    25  C    0.798021  -0.011946
    26  O   -0.539150   0.045783
    27  N   -0.579427   0.028023
    28  C   -0.143155  -0.001892
    29  C   -0.031064   0.002163
    30  C   -0.235295   0.000263
    31  C   -0.108147   0.000854
    32  C   -0.032821  -0.000606
    33  C   -0.225278   0.001283
    34  Cl   0.540795   0.088769
    35  H    0.118902   0.000000
    36  H    0.122224   0.000000
    37  H    0.098195   0.000000
    38  H    0.076058   0.000000
    39  H    0.116259   0.000000
    40  H    0.113154   0.000000
    41  H    0.088613  -0.000005
    42  H    0.105083   0.000002
    43  H    0.140928   0.000003
    44  H    0.078709   0.000009
    45  H    0.184076   0.000009
    46  H    0.095477  -0.000155
    47  H    0.281251   0.000006
    48  H    0.237833   0.002728
    49  H    0.245344  -0.001861
    50  H    0.130616   0.001817
    51  H    0.182980  -0.003659
    52  H    0.340567  -0.002912
    53  H    0.185605   0.000754
    54  H    0.152028   0.000349
    55  H    0.134319  -0.000076
    56  H    0.124174   0.000109
    57  H    0.111073   0.000016
    58  H    0.151819  -0.000672
    59  H    0.171079  -0.000388
    60  H    0.120113   0.000046
    61  H    0.121635  -0.000109
    62  H    0.120742  -0.000054
    63  H    0.083893   0.046063
 Sum of Mulliken charges =   1.00000   1.00000

 Dipole moment (field-independent basis, Debye):
    X=             -7.1827    Y=              2.8617    Z=              3.4237  Tot=              8.4559
 Quadrupole moment (field-independent basis, Debye-Ang):
   XX=           -156.7092   YY=           -207.4113   ZZ=           -215.0740
   XY=             27.6176   XZ=             28.6052   YZ=            -11.5905

 Normal termination of Gaussian 09 at Mon Mar  4 23:28:45 2024.
