 Gaussian 09, Revision D.01,
 Gaussian 09:  ES64L-G09RevD.01 24-Apr-2013

 ----------------------------------------------------------------------
 #p CAM-B3LYP/6-31G(d,p) SCRF=(PCM,Solvent=Generic,Read) NoSymm out=wfn
 ----------------------------------------------------------------------

 ------------------
 Title A230421851_0
 ------------------
 Symbolic Z-matrix:
 Charge =  0 Multiplicity = 1

                          Input orientation:
 ---------------------------------------------------------------------
 Center     Atomic      Atomic             Coordinates (Angstroms)
 Number     Number       Type             X           Y           Z
 ---------------------------------------------------------------------
      1          6           0        0.331666    4.523062   -0.683328
      2          6           0        0.198276    3.170698   -1.368912
      3          7           0        0.052946    2.086116   -0.395142
      4          6           0       -1.217234    1.749711    0.023891
      5          8           0       -2.211078    2.328010   -0.408812
      6          7           0       -1.313027    0.707905    0.908020
      7          6           0       -2.640110    0.239978    1.300316
      8          9           0       -3.478820    1.305470    1.458901
      9          9           0       -2.530258   -0.237971    2.585282
     10          6           0       -3.344457   -0.858107    0.452668
     11          9           0       -4.498287   -1.200057    1.113153
     12          8           0       -2.539099   -2.039946    0.430008
     13          6           0       -3.052783   -3.067126   -0.373721
     14          9           0       -2.724876   -2.814569   -1.653039
     15          9           0       -2.483646   -4.229820   -0.008167
     16          9           0       -4.383969   -3.175123   -0.252214
     17          6           0       -3.708517   -0.269971   -0.911483
     18          9           0       -4.455008   -1.130215   -1.644896
     19          9           0       -2.591858   -0.021026   -1.637985
     20          9           0       -4.424210    0.867220   -0.825952
     21          6           0       -0.224450   -0.062498    1.235224
     22          8           0       -0.340497   -1.208182    1.657889
     23          7           0        1.008149    0.503802    1.029772
     24          6           0        2.179009   -0.245121    1.472793
     25          9           0        1.921849   -0.741597    2.716959
     26          9           0        3.203838    0.628826    1.691135
     27          6           0        2.643846   -1.380173    0.521996
     28          9           0        1.666858   -2.330748    0.444922
     29          8           0        2.770755   -0.869500   -0.810048
     30          6           0        3.421066   -1.753113   -1.684698
     31          9           0        4.742492   -1.716740   -1.454644
     32          9           0        2.956197   -3.003110   -1.540399
     33          9           0        3.188346   -1.347949   -2.946790
     34          6           0        3.900372   -1.970945    1.177863
     35          9           0        3.696553   -2.353820    2.456765
     36          9           0        4.929047   -1.093948    1.176828
     37          9           0        4.331294   -3.074203    0.519241
     38          6           0        1.197639    1.490340    0.095834
     39          8           0        2.313625    1.810878   -0.309338
     40          1           0        0.438566    5.317728   -1.427978
     41          1           0        1.208191    4.547931   -0.027699
     42          1           0       -0.549024    4.743408   -0.071297
     43          1           0        1.079706    2.989969   -1.994376
     44          1           0       -0.669079    3.184526   -2.038544
 ---------------------------------------------------------------------

 SCF Done:  E(RCAM-B3LYP) =  -2835.10956497     A.U. after   13 cycles

 Alpha  occ. eigenvalues --  -24.83928 -24.83790 -24.83668 -24.83637 -24.83592
 Alpha  occ. eigenvalues --  -24.83474 -24.83437 -24.83405 -24.83181 -24.83136
 Alpha  occ. eigenvalues --  -24.83131 -24.83084 -24.83031 -24.83005 -24.82882
 Alpha  occ. eigenvalues --  -24.82854 -24.82834 -24.82273 -19.33194 -19.32850
 Alpha  occ. eigenvalues --  -19.24781 -19.23789 -19.23744 -14.53305 -14.53020
 Alpha  occ. eigenvalues --  -14.50527 -10.59744 -10.59499 -10.55637 -10.55515
 Alpha  occ. eigenvalues --  -10.53743 -10.53585 -10.49204 -10.49151 -10.47008
 Alpha  occ. eigenvalues --  -10.45754 -10.45710 -10.31672 -10.26100  -1.43399
 Alpha  occ. eigenvalues --   -1.43223  -1.41948  -1.41859  -1.39237  -1.38968
 Alpha  occ. eigenvalues --   -1.35753  -1.35285  -1.33723  -1.33452  -1.33411
 Alpha  occ. eigenvalues --   -1.33290  -1.33158  -1.32895  -1.32371  -1.32247
 Alpha  occ. eigenvalues --   -1.31736  -1.31309  -1.23474  -1.20767  -1.20566
 Alpha  occ. eigenvalues --   -1.18121  -1.17833  -1.10160  -1.08634  -1.06566
 Alpha  occ. eigenvalues --   -0.94069  -0.93381  -0.87757  -0.85342  -0.84176
 Alpha  occ. eigenvalues --   -0.82338  -0.82134  -0.79898  -0.79020  -0.77399
 Alpha  occ. eigenvalues --   -0.75917  -0.74832  -0.74163  -0.72991  -0.72886
 Alpha  occ. eigenvalues --   -0.71873  -0.71728  -0.70699  -0.70512  -0.69955
 Alpha  occ. eigenvalues --   -0.69567  -0.69170  -0.68631  -0.68519  -0.67666
 Alpha  occ. eigenvalues --   -0.66970  -0.66563  -0.66409  -0.65550  -0.64822
 Alpha  occ. eigenvalues --   -0.64342  -0.62342  -0.60068  -0.59774  -0.59035
 Alpha  occ. eigenvalues --   -0.57845  -0.57723  -0.57259  -0.57194  -0.56439
 Alpha  occ. eigenvalues --   -0.56393  -0.56292  -0.56068  -0.55859  -0.55784
 Alpha  occ. eigenvalues --   -0.55632  -0.55160  -0.55017  -0.54859  -0.54721
 Alpha  occ. eigenvalues --   -0.54297  -0.53746  -0.53667  -0.53259  -0.53194
 Alpha  occ. eigenvalues --   -0.53092  -0.52730  -0.52382  -0.52266  -0.52004
 Alpha  occ. eigenvalues --   -0.51634  -0.51410  -0.51176  -0.50982  -0.50849
 Alpha  occ. eigenvalues --   -0.50547  -0.50412  -0.50293  -0.50079  -0.49979
 Alpha  occ. eigenvalues --   -0.49578  -0.49220  -0.49043  -0.48920  -0.48870
 Alpha  occ. eigenvalues --   -0.46877  -0.46049  -0.45922  -0.45279  -0.44767
 Alpha  occ. eigenvalues --   -0.44586  -0.42582  -0.40689  -0.39557  -0.38849
 Alpha  occ. eigenvalues --   -0.38443  -0.36408  -0.35969
 Alpha virt. eigenvalues --    0.00385   0.00637   0.05381   0.06247   0.06992
 Alpha virt. eigenvalues --    0.08763   0.11162   0.13248   0.14454   0.14946
 Alpha virt. eigenvalues --    0.16388   0.17216   0.17998   0.19254   0.19381

 Mulliken charges:
               1
     1  C   -0.327232
     2  C   -0.067510
     3  N   -0.584531
     4  C    0.843570
     5  O   -0.508836
     6  N   -0.639580
     7  C    0.744538
     8  F   -0.245743
     9  F   -0.265796
    10  C    0.436364
    11  F   -0.267444
    12  O   -0.499434
    13  C    0.995777
    14  F   -0.249138
    15  F   -0.236966
    16  F   -0.242444
    17  C    0.815974
    18  F   -0.254475
    19  F   -0.250936
    20  F   -0.233982
    21  C    0.835095
    22  O   -0.468618
    23  N   -0.646589
    24  C    0.761330
    25  F   -0.257646
    26  F   -0.251968
    27  C    0.437937
    28  F   -0.254203
    29  O   -0.507596
    30  C    0.996702
    31  F   -0.242357
    32  F   -0.242570
    33  F   -0.239471
    34  C    0.813642
    35  F   -0.243408
    36  F   -0.245718
    37  F   -0.259092
    38  C    0.850811
    39  O   -0.503995
    40  H    0.130894
    41  H    0.128401
    42  H    0.128867
    43  H    0.159141
    44  H    0.158236
 Sum of Mulliken charges =   0.00000

 Dipole moment (field-independent basis, Debye):
    X=              0.2620    Y=              2.3412    Z=             -1.4536  Tot=              2.7682
 Quadrupole moment (field-independent basis, Debye-Ang):
   XX=           -221.7009   YY=           -203.1548   ZZ=           -206.7992
   XY=              1.6865   XZ=             -0.3383   YZ=              2.1569

 Normal termination of Gaussian 09 at Sun Mar  3 18:09:52 2024.
