 Gaussian 09, Revision D.01,
 Gaussian 09:  ES64L-G09RevD.01 24-Apr-2013

 ----------------------------------------------------------------------
 #p CAM-B3LYP/6-31G(d,p) SCRF=(PCM,Solvent=Generic,Read) NoSymm out=wfn
 ----------------------------------------------------------------------

 -------------------
 Title A1400116032_0
 -------------------
 Symbolic Z-matrix:
 Charge =  0 Multiplicity = 1

                          Input orientation:
 ---------------------------------------------------------------------
 Center     Atomic      Atomic             Coordinates (Angstroms)
 Number     Number       Type             X           Y           Z
 ---------------------------------------------------------------------
      1          8           0        0.511441   -2.089646   -1.543633
      2          6           0        0.096171   -0.987290   -1.197506
      3          7           0        0.966904    0.019795   -0.847922
      4          6           0        2.414219   -0.224106   -0.993224
      5          6           0        3.033089   -0.801962    0.291598
      6          9           0        3.051207    0.161294    1.251740
      7          9           0        2.174945   -1.752481    0.765494
      8          6           0        4.440119   -1.408624    0.141621
      9          9           0        4.399101   -2.450006   -0.743108
     10          8           0        5.038275   -1.910799    1.342797
     11          6           0        4.260098   -2.865323    2.015542
     12          9           0        3.640872   -3.695794    1.162263
     13          9           0        3.359930   -2.238668    2.792292
     14          9           0        5.072945   -3.590786    2.808120
     15          6           0        5.376655   -0.341182   -0.432848
     16          9           0        6.647103   -0.796671   -0.545297
     17          9           0        5.415173    0.771272    0.332022
     18          9           0        4.993354    0.042265   -1.674341
     19          6           0        0.558159    1.186226   -0.242804
     20          8           0        1.347202    2.106347   -0.045196
     21          7           0       -0.767670    1.260640    0.091408
     22          6           0       -1.242735    2.428213    0.824085
     23          9           0       -2.149899    1.971622    1.750509
     24          9           0       -0.247795    2.929066    1.615557
     25          6           0       -1.900352    3.597786    0.040268
     26          9           0       -2.935002    3.118984   -0.710328
     27          8           0       -2.486147    4.485729    1.007705
     28          6           0       -2.988877    5.669307    0.448989
     29          9           0       -3.630817    5.435243   -0.705550
     30          9           0       -1.970517    6.521913    0.245732
     31          9           0       -3.847934    6.226467    1.321840
     32          6           0       -0.846902    4.201817   -0.890001
     33          9           0        0.192865    4.732331   -0.218023
     34          9           0       -1.361593    5.186451   -1.663571
     35          9           0       -0.364731    3.275252   -1.754005
     36          6           0       -1.706599    0.394455   -0.416377
     37          8           0       -2.905756    0.585395   -0.243343
     38          7           0       -1.238016   -0.688574   -1.121920
     39          6           0       -2.201626   -1.672822   -1.611843
     40          9           0       -1.673646   -2.353710   -2.670654
     41          9           0       -3.228358   -0.973949   -2.199642
     42          6           0       -2.828166   -2.675150   -0.602202
     43          9           0       -3.781863   -3.391968   -1.279395
     44          8           0       -3.524477   -1.953942    0.418738
     45          6           0       -4.060368   -2.769301    1.426266
     46          9           0       -4.588936   -3.895442    0.925371
     47          9           0       -3.084111   -3.066702    2.301092
     48          9           0       -5.020582   -2.084134    2.072622
     49          6           0       -1.731156   -3.626853   -0.122143
     50          9           0       -1.080163   -4.235067   -1.131986
     51          9           0       -0.824279   -2.962477    0.633454
     52          9           0       -2.229778   -4.615683    0.656862
     53          1           0        2.889517    0.727861   -1.249302
     54          1           0        2.569508   -0.916621   -1.827823
 ---------------------------------------------------------------------

 SCF Done:  E(RCAM-B3LYP) =  -3921.13729283     A.U. after   13 cycles

 Alpha  occ. eigenvalues --  -24.84513 -24.84501 -24.83978 -24.83765 -24.83754
 Alpha  occ. eigenvalues --  -24.83730 -24.83705 -24.83580 -24.83559 -24.83551
 Alpha  occ. eigenvalues --  -24.83495 -24.83443 -24.83338 -24.83309 -24.83306
 Alpha  occ. eigenvalues --  -24.83270 -24.83225 -24.83198 -24.83184 -24.83105
 Alpha  occ. eigenvalues --  -24.83059 -24.83046 -24.82923 -24.82403 -24.82290
 Alpha  occ. eigenvalues --  -24.81923 -24.81847 -19.33120 -19.33098 -19.32746
 Alpha  occ. eigenvalues --  -19.25060 -19.24713 -19.24679 -14.54100 -14.54091
 Alpha  occ. eigenvalues --  -14.52303 -10.59653 -10.59626 -10.59345 -10.56001
 Alpha  occ. eigenvalues --  -10.55726 -10.55698 -10.54093 -10.53943 -10.49452
 Alpha  occ. eigenvalues --  -10.49394 -10.48476 -10.48368 -10.47659 -10.46744
 Alpha  occ. eigenvalues --  -10.46696 -10.35544  -1.43409  -1.43323  -1.42820
 Alpha  occ. eigenvalues --   -1.42305  -1.42282  -1.42041  -1.39292  -1.39008
 Alpha  occ. eigenvalues --   -1.37813  -1.35973  -1.35679  -1.35498  -1.33719
 Alpha  occ. eigenvalues --   -1.33568  -1.33519  -1.33477  -1.33372  -1.33292
 Alpha  occ. eigenvalues --   -1.33240  -1.33194  -1.32767  -1.32687  -1.32678
 Alpha  occ. eigenvalues --   -1.32484  -1.31571  -1.31417  -1.30902  -1.24283
 Alpha  occ. eigenvalues --   -1.20793  -1.20589  -1.20303  -1.18909  -1.18810
 Alpha  occ. eigenvalues --   -1.10925  -1.09461  -1.08012  -0.94797  -0.94018
 Alpha  occ. eigenvalues --   -0.93683  -0.89146  -0.85827  -0.84689  -0.83001
 Alpha  occ. eigenvalues --   -0.82565  -0.82069  -0.80908  -0.79530  -0.78852
 Alpha  occ. eigenvalues --   -0.76814  -0.76389  -0.75808  -0.75325  -0.73787
 Alpha  occ. eigenvalues --   -0.73083  -0.72783  -0.72179  -0.72020  -0.71346
 Alpha  occ. eigenvalues --   -0.71046  -0.70667  -0.70510  -0.69977  -0.69844
 Alpha  occ. eigenvalues --   -0.69684  -0.69398  -0.69057  -0.68675  -0.68469
 Alpha  occ. eigenvalues --   -0.68013  -0.67934  -0.67625  -0.66947  -0.66508
 Alpha  occ. eigenvalues --   -0.66079  -0.65814  -0.65324  -0.64755  -0.64454
 Alpha  occ. eigenvalues --   -0.64193  -0.62349  -0.60537  -0.60285  -0.60043
 Alpha  occ. eigenvalues --   -0.59501  -0.58126  -0.57930  -0.57420  -0.57319
 Alpha  occ. eigenvalues --   -0.57281  -0.57068  -0.56810  -0.56698  -0.56479
 Alpha  occ. eigenvalues --   -0.56349  -0.56272  -0.56005  -0.55919  -0.55815
 Alpha  occ. eigenvalues --   -0.55785  -0.55294  -0.55121  -0.54927  -0.54878
 Alpha  occ. eigenvalues --   -0.54805  -0.54581  -0.54417  -0.54153  -0.53973
 Alpha  occ. eigenvalues --   -0.53575  -0.53446  -0.53201  -0.53091  -0.52984
 Alpha  occ. eigenvalues --   -0.52733  -0.52693  -0.52513  -0.52400  -0.52216
 Alpha  occ. eigenvalues --   -0.52061  -0.51865  -0.51603  -0.51455  -0.51178
 Alpha  occ. eigenvalues --   -0.51120  -0.51016  -0.50900  -0.50727  -0.50704
 Alpha  occ. eigenvalues --   -0.50464  -0.50352  -0.50087  -0.49809  -0.49729
 Alpha  occ. eigenvalues --   -0.49652  -0.49624  -0.49353  -0.49232  -0.48985
 Alpha  occ. eigenvalues --   -0.48900  -0.48479  -0.47500  -0.46327  -0.46219
 Alpha  occ. eigenvalues --   -0.45726  -0.44779  -0.44752  -0.43534  -0.40821
 Alpha  occ. eigenvalues --   -0.40486  -0.40164  -0.39071  -0.37962  -0.36665
 Alpha virt. eigenvalues --   -0.00389  -0.00185   0.05404   0.05887   0.06325
 Alpha virt. eigenvalues --    0.06698   0.07365   0.08166   0.10011   0.12831
 Alpha virt. eigenvalues --    0.13829   0.14887   0.15604   0.16213   0.16973

 Mulliken charges:
               1
     1  O   -0.498585
     2  C    0.856372
     3  N   -0.607241
     4  C   -0.121638
     5  C    0.596952
     6  F   -0.267836
     7  F   -0.281373
     8  C    0.412569
     9  F   -0.267743
    10  O   -0.518804
    11  C    0.997998
    12  F   -0.242922
    13  F   -0.244855
    14  F   -0.241789
    15  C    0.801964
    16  F   -0.247443
    17  F   -0.237880
    18  F   -0.245591
    19  C    0.849291
    20  O   -0.497556
    21  N   -0.650425
    22  C    0.750250
    23  F   -0.263417
    24  F   -0.244455
    25  C    0.436511
    26  F   -0.253716
    27  O   -0.511775
    28  C    0.997667
    29  F   -0.242685
    30  F   -0.245376
    31  F   -0.237648
    32  C    0.817053
    33  F   -0.233413
    34  F   -0.252489
    35  F   -0.252657
    36  C    0.867035
    37  O   -0.472770
    38  N   -0.651830
    39  C    0.743117
    40  F   -0.245688
    41  F   -0.260537
    42  C    0.436414
    43  F   -0.265690
    44  O   -0.503339
    45  C    0.997139
    46  F   -0.241948
    47  F   -0.247505
    48  F   -0.236260
    49  C    0.817273
    50  F   -0.234345
    51  F   -0.249770
    52  F   -0.253168
    53  H    0.198627
    54  H    0.195930
 Sum of Mulliken charges =   0.00000

 Dipole moment (field-independent basis, Debye):
    X=              1.3604    Y=              0.2008    Z=             -1.9519  Tot=              2.3876
 Quadrupole moment (field-independent basis, Debye-Ang):
   XX=           -282.7478   YY=           -281.6054   ZZ=           -271.7645
   XY=              0.8549   XZ=             -5.6726   YZ=             -5.1161

 Normal termination of Gaussian 09 at Sun Mar  3 17:41:17 2024.
