 Gaussian 09, Revision D.01,
 Gaussian 09:  ES64L-G09RevD.01 24-Apr-2013

 ----------------------------------------------------------------------
 #p CAM-B3LYP/6-31G(d,p) SCRF=(PCM,Solvent=Generic,Read) NoSymm out=wfn
 ----------------------------------------------------------------------

 --------------------
 Title A1400116032_p1
 --------------------
 Symbolic Z-matrix:
 Charge =  1 Multiplicity = 2

                          Input orientation:
 ---------------------------------------------------------------------
 Center     Atomic      Atomic             Coordinates (Angstroms)
 Number     Number       Type             X           Y           Z
 ---------------------------------------------------------------------
      1          8           0        0.511441   -2.089646   -1.543633
      2          6           0        0.096171   -0.987290   -1.197506
      3          7           0        0.966904    0.019795   -0.847922
      4          6           0        2.414219   -0.224106   -0.993224
      5          6           0        3.033089   -0.801962    0.291598
      6          9           0        3.051207    0.161294    1.251740
      7          9           0        2.174945   -1.752481    0.765494
      8          6           0        4.440119   -1.408624    0.141621
      9          9           0        4.399101   -2.450006   -0.743108
     10          8           0        5.038275   -1.910799    1.342797
     11          6           0        4.260098   -2.865323    2.015542
     12          9           0        3.640872   -3.695794    1.162263
     13          9           0        3.359930   -2.238668    2.792292
     14          9           0        5.072945   -3.590786    2.808120
     15          6           0        5.376655   -0.341182   -0.432848
     16          9           0        6.647103   -0.796671   -0.545297
     17          9           0        5.415173    0.771272    0.332022
     18          9           0        4.993354    0.042265   -1.674341
     19          6           0        0.558159    1.186226   -0.242804
     20          8           0        1.347202    2.106347   -0.045196
     21          7           0       -0.767670    1.260640    0.091408
     22          6           0       -1.242735    2.428213    0.824085
     23          9           0       -2.149899    1.971622    1.750509
     24          9           0       -0.247795    2.929066    1.615557
     25          6           0       -1.900352    3.597786    0.040268
     26          9           0       -2.935002    3.118984   -0.710328
     27          8           0       -2.486147    4.485729    1.007705
     28          6           0       -2.988877    5.669307    0.448989
     29          9           0       -3.630817    5.435243   -0.705550
     30          9           0       -1.970517    6.521913    0.245732
     31          9           0       -3.847934    6.226467    1.321840
     32          6           0       -0.846902    4.201817   -0.890001
     33          9           0        0.192865    4.732331   -0.218023
     34          9           0       -1.361593    5.186451   -1.663571
     35          9           0       -0.364731    3.275252   -1.754005
     36          6           0       -1.706599    0.394455   -0.416377
     37          8           0       -2.905756    0.585395   -0.243343
     38          7           0       -1.238016   -0.688574   -1.121920
     39          6           0       -2.201626   -1.672822   -1.611843
     40          9           0       -1.673646   -2.353710   -2.670654
     41          9           0       -3.228358   -0.973949   -2.199642
     42          6           0       -2.828166   -2.675150   -0.602202
     43          9           0       -3.781863   -3.391968   -1.279395
     44          8           0       -3.524477   -1.953942    0.418738
     45          6           0       -4.060368   -2.769301    1.426266
     46          9           0       -4.588936   -3.895442    0.925371
     47          9           0       -3.084111   -3.066702    2.301092
     48          9           0       -5.020582   -2.084134    2.072622
     49          6           0       -1.731156   -3.626853   -0.122143
     50          9           0       -1.080163   -4.235067   -1.131986
     51          9           0       -0.824279   -2.962477    0.633454
     52          9           0       -2.229778   -4.615683    0.656862
     53          1           0        2.889517    0.727861   -1.249302
     54          1           0        2.569508   -0.916621   -1.827823
 ---------------------------------------------------------------------

 SCF Done:  E(UCAM-B3LYP) =  -3920.79277695     A.U. after   70 cycles

 Alpha  occ. eigenvalues --  -24.89379 -24.88174 -24.88040 -24.87976 -24.87552
 Alpha  occ. eigenvalues --  -24.87516 -24.87213 -24.87175 -24.87103 -24.86773
 Alpha  occ. eigenvalues --  -24.86602 -24.86389 -24.86387 -24.86383 -24.86285
 Alpha  occ. eigenvalues --  -24.86051 -24.85941 -24.85920 -24.85912 -24.85649
 Alpha  occ. eigenvalues --  -24.85637 -24.85637 -24.85550 -24.85432 -24.85302
 Alpha  occ. eigenvalues --  -24.85263 -24.85176 -19.42195 -19.37782 -19.36248
 Alpha  occ. eigenvalues --  -19.35760 -19.35717 -19.32602 -14.66464 -14.62473
 Alpha  occ. eigenvalues --  -14.61481 -10.62048 -10.61808 -10.61664 -10.59448
 Alpha  occ. eigenvalues --  -10.59251 -10.59075 -10.58700 -10.58583 -10.58286
 Alpha  occ. eigenvalues --  -10.56594 -10.54651 -10.54343 -10.53242 -10.52895
 Alpha  occ. eigenvalues --  -10.52252 -10.43276  -1.46259  -1.46002  -1.45488
 Alpha  occ. eigenvalues --   -1.45009  -1.44942  -1.44700  -1.44453  -1.43538
 Alpha  occ. eigenvalues --   -1.42991  -1.39151  -1.39023  -1.38773  -1.37202
 Alpha  occ. eigenvalues --   -1.36933  -1.36643  -1.36475  -1.36219  -1.35998
 Alpha  occ. eigenvalues --   -1.35959  -1.35739  -1.35719  -1.35700  -1.35437
 Alpha  occ. eigenvalues --   -1.35344  -1.35159  -1.35065  -1.34877  -1.34780
 Alpha  occ. eigenvalues --   -1.31374  -1.27815  -1.23855  -1.23268  -1.23172
 Alpha  occ. eigenvalues --   -1.22077  -1.18107  -1.17523  -1.00329  -0.98433
 Alpha  occ. eigenvalues --   -0.97850  -0.95178  -0.93066  -0.91848  -0.88648
 Alpha  occ. eigenvalues --   -0.86848  -0.85924  -0.85073  -0.84379  -0.83983
 Alpha  occ. eigenvalues --   -0.83525  -0.80813  -0.79816  -0.78961  -0.77772
 Alpha  occ. eigenvalues --   -0.76706  -0.76368  -0.76016  -0.75479  -0.75186
 Alpha  occ. eigenvalues --   -0.74902  -0.74021  -0.73870  -0.73403  -0.73089
 Alpha  occ. eigenvalues --   -0.72603  -0.72345  -0.72138  -0.71960  -0.71755
 Alpha  occ. eigenvalues --   -0.71675  -0.71583  -0.71263  -0.70699  -0.70510
 Alpha  occ. eigenvalues --   -0.70252  -0.69941  -0.69793  -0.69666  -0.69301
 Alpha  occ. eigenvalues --   -0.68927  -0.68606  -0.68545  -0.66713  -0.66033
 Alpha  occ. eigenvalues --   -0.65264  -0.63495  -0.63115  -0.63061  -0.62597
 Alpha  occ. eigenvalues --   -0.62278  -0.61732  -0.61016  -0.60473  -0.60243
 Alpha  occ. eigenvalues --   -0.60089  -0.59931  -0.59824  -0.59734  -0.59630
 Alpha  occ. eigenvalues --   -0.59569  -0.59263  -0.59127  -0.58968  -0.58725
 Alpha  occ. eigenvalues --   -0.58425  -0.58255  -0.58197  -0.58059  -0.57748
 Alpha  occ. eigenvalues --   -0.57685  -0.57453  -0.57051  -0.56876  -0.56711
 Alpha  occ. eigenvalues --   -0.56280  -0.56068  -0.55844  -0.55636  -0.55594
 Alpha  occ. eigenvalues --   -0.55397  -0.55258  -0.55156  -0.54942  -0.54839
 Alpha  occ. eigenvalues --   -0.54650  -0.54601  -0.54368  -0.54137  -0.54009
 Alpha  occ. eigenvalues --   -0.53795  -0.53777  -0.53611  -0.53491  -0.53356
 Alpha  occ. eigenvalues --   -0.52993  -0.52842  -0.52735  -0.52651  -0.52427
 Alpha  occ. eigenvalues --   -0.52278  -0.51976  -0.51855  -0.51582  -0.51167
 Alpha  occ. eigenvalues --   -0.50965  -0.49950  -0.49627  -0.48806  -0.48632
 Alpha  occ. eigenvalues --   -0.47753  -0.47365  -0.46899  -0.46288  -0.45304
 Alpha virt. eigenvalues --   -0.10898  -0.08383  -0.00404   0.00281   0.01474
 Alpha virt. eigenvalues --    0.01675   0.03133   0.03626   0.04624   0.07444
 Alpha virt. eigenvalues --    0.08346   0.09350   0.09915   0.11588   0.12048

  Beta  occ. eigenvalues --  -24.89318 -24.88141 -24.88039 -24.87976 -24.87551
  Beta  occ. eigenvalues --  -24.87491 -24.87210 -24.87165 -24.87081 -24.86772
  Beta  occ. eigenvalues --  -24.86594 -24.86389 -24.86385 -24.86381 -24.86285
  Beta  occ. eigenvalues --  -24.86050 -24.85941 -24.85920 -24.85912 -24.85649
  Beta  occ. eigenvalues --  -24.85637 -24.85637 -24.85550 -24.85431 -24.85302
  Beta  occ. eigenvalues --  -24.85263 -24.85176 -19.40902 -19.36984 -19.36247
  Beta  occ. eigenvalues --  -19.35752 -19.35717 -19.32457 -14.65794 -14.62467
  Beta  occ. eigenvalues --  -14.61499 -10.62048 -10.61808 -10.61664 -10.59451
  Beta  occ. eigenvalues --  -10.59251 -10.59075 -10.58700 -10.58583 -10.58485
  Beta  occ. eigenvalues --  -10.56763 -10.54671 -10.54290 -10.53244 -10.52897
  Beta  occ. eigenvalues --  -10.52245 -10.43278  -1.46250  -1.46000  -1.45481
  Beta  occ. eigenvalues --   -1.45004  -1.44941  -1.44699  -1.44384  -1.43499
  Beta  occ. eigenvalues --   -1.42937  -1.39146  -1.39017  -1.38761  -1.37187
  Beta  occ. eigenvalues --   -1.36928  -1.36561  -1.36442  -1.36192  -1.35987
  Beta  occ. eigenvalues --   -1.35928  -1.35738  -1.35705  -1.35698  -1.35435
  Beta  occ. eigenvalues --   -1.35158  -1.35076  -1.34884  -1.34782  -1.34083
  Beta  occ. eigenvalues --   -1.29858  -1.27261  -1.23848  -1.23250  -1.23169
  Beta  occ. eigenvalues --   -1.20481  -1.17622  -1.17117  -1.00209  -0.98377
  Beta  occ. eigenvalues --   -0.97796  -0.95079  -0.92576  -0.91745  -0.88435
  Beta  occ. eigenvalues --   -0.86616  -0.85895  -0.84687  -0.84319  -0.83867
  Beta  occ. eigenvalues --   -0.83496  -0.80779  -0.79810  -0.78868  -0.77725
  Beta  occ. eigenvalues --   -0.76691  -0.76126  -0.75926  -0.75458  -0.75071
  Beta  occ. eigenvalues --   -0.74815  -0.73992  -0.73743  -0.73378  -0.72815
  Beta  occ. eigenvalues --   -0.72366  -0.72331  -0.72113  -0.71883  -0.71712
  Beta  occ. eigenvalues --   -0.71620  -0.71561  -0.71103  -0.70687  -0.70333
  Beta  occ. eigenvalues --   -0.70189  -0.69756  -0.69642  -0.69504  -0.69233
  Beta  occ. eigenvalues --   -0.68798  -0.68516  -0.67803  -0.66251  -0.65148
  Beta  occ. eigenvalues --   -0.64561  -0.63401  -0.63085  -0.62722  -0.62103
  Beta  occ. eigenvalues --   -0.61935  -0.61252  -0.60888  -0.60362  -0.60085
  Beta  occ. eigenvalues --   -0.59958  -0.59793  -0.59747  -0.59676  -0.59544
  Beta  occ. eigenvalues --   -0.59435  -0.59209  -0.59067  -0.58876  -0.58589
  Beta  occ. eigenvalues --   -0.58317  -0.58212  -0.58100  -0.58036  -0.57679
  Beta  occ. eigenvalues --   -0.57546  -0.57439  -0.57018  -0.56631  -0.56539
  Beta  occ. eigenvalues --   -0.56089  -0.55830  -0.55676  -0.55464  -0.55445
  Beta  occ. eigenvalues --   -0.55218  -0.55164  -0.55085  -0.54807  -0.54637
  Beta  occ. eigenvalues --   -0.54577  -0.54352  -0.54198  -0.54005  -0.53836
  Beta  occ. eigenvalues --   -0.53720  -0.53502  -0.53473  -0.53305  -0.52913
  Beta  occ. eigenvalues --   -0.52824  -0.52714  -0.52673  -0.52207  -0.51978
  Beta  occ. eigenvalues --   -0.51860  -0.51680  -0.51548  -0.50737  -0.49846
  Beta  occ. eigenvalues --   -0.49271  -0.48845  -0.48430  -0.47797  -0.47531
  Beta  occ. eigenvalues --   -0.46927  -0.46375  -0.45858  -0.44261
  Beta virt. eigenvalues --   -0.31761  -0.10035  -0.07731  -0.00142   0.00381
  Beta virt. eigenvalues --    0.01601   0.01749   0.03213   0.03682   0.04708
  Beta virt. eigenvalues --    0.07547   0.08443   0.09414   0.10011   0.11626

 Mulliken charges and spin densities:
               1          2
     1  O   -0.285733   0.488275
     2  C    0.940661  -0.116632
     3  N   -0.538571   0.312046
     4  C   -0.170054  -0.008259
     5  C    0.601190   0.019867
     6  F   -0.248474   0.005995
     7  F   -0.270751   0.006703
     8  C    0.417379   0.002699
     9  F   -0.259131   0.000511
    10  O   -0.504797   0.002897
    11  C    1.002925  -0.000152
    12  F   -0.242335   0.000001
    13  F   -0.243670   0.000341
    14  F   -0.234581   0.000090
    15  C    0.807995  -0.000052
    16  F   -0.237998   0.000032
    17  F   -0.232877   0.000005
    18  F   -0.244334   0.000183
    19  C    0.911824  -0.100609
    20  O   -0.347735   0.306758
    21  N   -0.653231  -0.003122
    22  C    0.748621  -0.001028
    23  F   -0.246687   0.002098
    24  F   -0.232826   0.007192
    25  C    0.446230  -0.000741
    26  F   -0.248024   0.000259
    27  O   -0.505359   0.000064
    28  C    1.002829  -0.000028
    29  F   -0.240224   0.000006
    30  F   -0.242279  -0.000001
    31  F   -0.232546  -0.000003
    32  C    0.817272  -0.000201
    33  F   -0.229202   0.000068
    34  F   -0.243075   0.000032
    35  F   -0.256956   0.000282
    36  C    0.909940  -0.011148
    37  O   -0.401622   0.054244
    38  N   -0.651027   0.006260
    39  C    0.736292  -0.002368
    40  F   -0.231698   0.013687
    41  F   -0.239748   0.002642
    42  C    0.452781  -0.000564
    43  F   -0.250596  -0.000056
    44  O   -0.505911   0.000063
    45  C    1.003846  -0.000005
    46  F   -0.236825   0.000009
    47  F   -0.244893   0.000004
    48  F   -0.230589  -0.000001
    49  C    0.814557  -0.000473
    50  F   -0.231846   0.000838
    51  F   -0.253018   0.000012
    52  F   -0.241329   0.000083
    53  H    0.250055   0.004631
    54  H    0.246152   0.006564
 Sum of Mulliken charges =   1.00000   1.00000

 Dipole moment (field-independent basis, Debye):
    X=              2.9989    Y=             -0.6271    Z=             -5.0035  Tot=              5.8670
 Quadrupole moment (field-independent basis, Debye-Ang):
   XX=           -256.2858   YY=           -257.3549   ZZ=           -260.8399
   XY=             -0.3337   XZ=             -6.0438   YZ=             -0.3772

 Normal termination of Gaussian 09 at Sun Mar  3 17:48:51 2024.
