 Gaussian 09, Revision D.01,
 Gaussian 09:  ES64L-G09RevD.01 24-Apr-2013

 ----------------------------------------------------------------------
 #p CAM-B3LYP/6-31G(d,p) SCRF=(PCM,Solvent=Generic,Read) NoSymm out=wfn
 ----------------------------------------------------------------------

 -------------------
 Title A902650420_p1
 -------------------
 Symbolic Z-matrix:
 Charge =  1 Multiplicity = 2

                          Input orientation:
 ---------------------------------------------------------------------
 Center     Atomic      Atomic             Coordinates (Angstroms)
 Number     Number       Type             X           Y           Z
 ---------------------------------------------------------------------
      1          6           0       -3.121422   -2.833255   -1.226856
      2          6           0       -1.918085   -2.474237   -0.763576
      3          7           0       -1.562219   -1.278661   -0.124876
      4          6           0       -2.518340   -0.350088    0.302761
      5          8           0       -3.684438   -0.665160    0.554956
      6          7           0       -2.028374    0.946227    0.498750
      7          6           0       -2.869140    2.067338    0.509363
      8          6           0       -4.160932    2.130537    0.164654
      9          6           0       -0.689743    1.146964    0.824818
     10          8           0       -0.213534    2.268531    1.007099
     11          7           0        0.088517    0.023760    0.921620
     12          6           0        1.475792    0.205442    1.324008
     13          9           0        1.494825    0.989818    2.442229
     14          9           0        1.945568   -0.993275    1.780440
     15          6           0        2.445424    0.783139    0.253971
     16          9           0        2.135336    2.091973    0.020577
     17          8           0        2.244086    0.125503   -1.000854
     18          6           0        3.242089    0.410603   -1.944360
     19          9           0        2.799605    0.033857   -3.158507
     20          9           0        3.519604    1.722806   -1.974782
     21          9           0        4.347725   -0.291602   -1.650840
     22          6           0        3.841189    0.692632    0.888210
     23          9           0        4.254054   -0.587674    1.022890
     24          9           0        4.772722    1.320287    0.129439
     25          9           0        3.901740    1.267504    2.109221
     26          6           0       -0.218377   -1.098593    0.194327
     27          8           0        0.657921   -1.890112   -0.161834
     28          1           0       -4.009230   -2.215374   -1.153364
     29          1           0       -3.249380   -3.795779   -1.714431
     30          1           0       -1.099614   -3.177463   -0.923207
     31          1           0       -2.393267    3.002255    0.808666
     32          1           0       -4.741360    1.279481   -0.173200
     33          1           0       -4.688744    3.079046    0.212692
 ---------------------------------------------------------------------

 SCF Done:  E(UCAM-B3LYP) =  -1785.62994391     A.U. after   30 cycles

 Alpha  occ. eigenvalues --  -24.85974 -24.85911 -24.85446 -24.85369 -24.85189
 Alpha  occ. eigenvalues --  -24.85177 -24.85054 -24.84718 -24.84455 -19.35416
 Alpha  occ. eigenvalues --  -19.31052 -19.30807 -19.30531 -14.60949 -14.60476
 Alpha  occ. eigenvalues --  -14.57866 -10.61550 -10.57320 -10.56775 -10.52333
 Alpha  occ. eigenvalues --  -10.52098 -10.51875 -10.51593 -10.41360 -10.40583
 Alpha  occ. eigenvalues --  -10.36950 -10.36158  -1.45093  -1.43625  -1.41944
 Alpha  occ. eigenvalues --   -1.37949  -1.35344  -1.35194  -1.34951  -1.34062
 Alpha  occ. eigenvalues --   -1.33841  -1.29277  -1.23963  -1.23773  -1.22851
 Alpha  occ. eigenvalues --   -1.16040  -1.14659  -1.13956  -0.97544  -0.95639
 Alpha  occ. eigenvalues --   -0.94927  -0.89061  -0.86393  -0.85763  -0.84248
 Alpha  occ. eigenvalues --   -0.80749  -0.80525  -0.77735  -0.75919  -0.75014
 Alpha  occ. eigenvalues --   -0.74559  -0.72485  -0.71744  -0.70426  -0.70264
 Alpha  occ. eigenvalues --   -0.69542  -0.69064  -0.68446  -0.67362  -0.66878
 Alpha  occ. eigenvalues --   -0.65450  -0.62529  -0.62041  -0.61391  -0.60694
 Alpha  occ. eigenvalues --   -0.59903  -0.59767  -0.59044  -0.58967  -0.58811
 Alpha  occ. eigenvalues --   -0.58417  -0.58064  -0.57615  -0.57399  -0.57049
 Alpha  occ. eigenvalues --   -0.56036  -0.55685  -0.54739  -0.54370  -0.54033
 Alpha  occ. eigenvalues --   -0.53738  -0.53177  -0.52924  -0.52583  -0.52194
 Alpha  occ. eigenvalues --   -0.51770  -0.51204  -0.50782  -0.50022  -0.49231
 Alpha  occ. eigenvalues --   -0.48311  -0.47062  -0.45842  -0.44752  -0.43487
 Alpha  occ. eigenvalues --   -0.42340  -0.41135  -0.40091
 Alpha virt. eigenvalues --   -0.07359  -0.06251  -0.03626   0.00503   0.02886
 Alpha virt. eigenvalues --    0.05009   0.06829   0.09760   0.10323   0.11459
 Alpha virt. eigenvalues --    0.12405   0.13313   0.14669   0.15278   0.15889

  Beta  occ. eigenvalues --  -24.85974 -24.85911 -24.85446 -24.85369 -24.85189
  Beta  occ. eigenvalues --  -24.85177 -24.85052 -24.84718 -24.84456 -19.35414
  Beta  occ. eigenvalues --  -19.31175 -19.30621 -19.30350 -14.60516 -14.60076
  Beta  occ. eigenvalues --  -14.57894 -10.61550 -10.57320 -10.56774 -10.52397
  Beta  occ. eigenvalues --  -10.52165 -10.51940 -10.51593 -10.41330 -10.40570
  Beta  occ. eigenvalues --  -10.36451 -10.35708  -1.45093  -1.43625  -1.41945
  Beta  occ. eigenvalues --   -1.37947  -1.35344  -1.35193  -1.34951  -1.34062
  Beta  occ. eigenvalues --   -1.33842  -1.28996  -1.23774  -1.23617  -1.22825
  Beta  occ. eigenvalues --   -1.15702  -1.13947  -1.13782  -0.97052  -0.95274
  Beta  occ. eigenvalues --   -0.93817  -0.89023  -0.85833  -0.85376  -0.84211
  Beta  occ. eigenvalues --   -0.80570  -0.80350  -0.77629  -0.75531  -0.74975
  Beta  occ. eigenvalues --   -0.74511  -0.72473  -0.71716  -0.70416  -0.70164
  Beta  occ. eigenvalues --   -0.69347  -0.68925  -0.68242  -0.67319  -0.66322
  Beta  occ. eigenvalues --   -0.65085  -0.62465  -0.62008  -0.60467  -0.60145
  Beta  occ. eigenvalues --   -0.59798  -0.59558  -0.58923  -0.58791  -0.58498
  Beta  occ. eigenvalues --   -0.58211  -0.57987  -0.57582  -0.57344  -0.57049
  Beta  occ. eigenvalues --   -0.55984  -0.55641  -0.54693  -0.54337  -0.53856
  Beta  occ. eigenvalues --   -0.53654  -0.53012  -0.52754  -0.52556  -0.52166
  Beta  occ. eigenvalues --   -0.51761  -0.51118  -0.50781  -0.48805  -0.48172
  Beta  occ. eigenvalues --   -0.47921  -0.46898  -0.45494  -0.44600  -0.42697
  Beta  occ. eigenvalues --   -0.42181  -0.34861
  Beta virt. eigenvalues --   -0.24984  -0.07302  -0.04817  -0.02085   0.02655
  Beta virt. eigenvalues --    0.02905   0.05686   0.07256   0.09892   0.10575
  Beta virt. eigenvalues --    0.11719   0.12496   0.13596   0.14682   0.15369

 Mulliken charges and spin densities:
               1          2
     1  C   -0.185965   0.327793
     2  C    0.166380   0.015159
     3  N   -0.564155   0.166072
     4  C    0.820826  -0.036256
     5  O   -0.436491  -0.044851
     6  N   -0.560385   0.179964
     7  C    0.174994   0.028278
     8  C   -0.176688   0.361265
     9  C    0.866595  -0.036616
    10  O   -0.435406   0.073315
    11  N   -0.662147  -0.008213
    12  C    0.764814  -0.000533
    13  F   -0.251231  -0.000038
    14  F   -0.248791  -0.000017
    15  C    0.441365  -0.000262
    16  F   -0.251232   0.000282
    17  O   -0.511863   0.000351
    18  C    0.999393   0.000013
    19  F   -0.238252   0.000001
    20  F   -0.239871   0.000026
    21  F   -0.239557   0.000000
    22  C    0.817107  -0.000045
    23  F   -0.243423   0.000001
    24  F   -0.255454  -0.000022
    25  F   -0.240823   0.000002
    26  C    0.877812  -0.035541
    27  O   -0.437533   0.071250
    28  H    0.192503  -0.013429
    29  H    0.198743  -0.015028
    30  H    0.224879  -0.000568
    31  H    0.229970  -0.001101
    32  H    0.199082  -0.014729
    33  H    0.204805  -0.016522
 Sum of Mulliken charges =   1.00000   1.00000

 Dipole moment (field-independent basis, Debye):
    X=            -13.8372    Y=             -0.6214    Z=             -1.8533  Tot=             13.9746
 Quadrupole moment (field-independent basis, Debye-Ang):
   XX=           -101.1357   YY=           -117.2441   ZZ=           -138.9093
   XY=             -4.5557   XZ=              5.8750   YZ=              7.8523

 Normal termination of Gaussian 09 at Sun Mar  3 17:59:45 2024.
