 Gaussian 09, Revision D.01,
 Gaussian 09:  ES64L-G09RevD.01 24-Apr-2013

 ----------------------------------------------------------------------
 #p CAM-B3LYP/6-31G(d,p) SCRF=(PCM,Solvent=Generic,Read) NoSymm out=wfn
 ----------------------------------------------------------------------

 ------------------
 Title A902650420_0
 ------------------
 Symbolic Z-matrix:
 Charge =  0 Multiplicity = 1

                          Input orientation:
 ---------------------------------------------------------------------
 Center     Atomic      Atomic             Coordinates (Angstroms)
 Number     Number       Type             X           Y           Z
 ---------------------------------------------------------------------
      1          6           0       -3.121422   -2.833255   -1.226856
      2          6           0       -1.918085   -2.474237   -0.763576
      3          7           0       -1.562219   -1.278661   -0.124876
      4          6           0       -2.518340   -0.350088    0.302761
      5          8           0       -3.684438   -0.665160    0.554956
      6          7           0       -2.028374    0.946227    0.498750
      7          6           0       -2.869140    2.067338    0.509363
      8          6           0       -4.160932    2.130537    0.164654
      9          6           0       -0.689743    1.146964    0.824818
     10          8           0       -0.213534    2.268531    1.007099
     11          7           0        0.088517    0.023760    0.921620
     12          6           0        1.475792    0.205442    1.324008
     13          9           0        1.494825    0.989818    2.442229
     14          9           0        1.945568   -0.993275    1.780440
     15          6           0        2.445424    0.783139    0.253971
     16          9           0        2.135336    2.091973    0.020577
     17          8           0        2.244086    0.125503   -1.000854
     18          6           0        3.242089    0.410603   -1.944360
     19          9           0        2.799605    0.033857   -3.158507
     20          9           0        3.519604    1.722806   -1.974782
     21          9           0        4.347725   -0.291602   -1.650840
     22          6           0        3.841189    0.692632    0.888210
     23          9           0        4.254054   -0.587674    1.022890
     24          9           0        4.772722    1.320287    0.129439
     25          9           0        3.901740    1.267504    2.109221
     26          6           0       -0.218377   -1.098593    0.194327
     27          8           0        0.657921   -1.890112   -0.161834
     28          1           0       -4.009230   -2.215374   -1.153364
     29          1           0       -3.249380   -3.795779   -1.714431
     30          1           0       -1.099614   -3.177463   -0.923207
     31          1           0       -2.393267    3.002255    0.808666
     32          1           0       -4.741360    1.279481   -0.173200
     33          1           0       -4.688744    3.079046    0.212692
 ---------------------------------------------------------------------

 SCF Done:  E(RCAM-B3LYP) =  -1785.90913297     A.U. after   13 cycles

 Alpha  occ. eigenvalues --  -24.83589 -24.83487 -24.83401 -24.83340 -24.82869
 Alpha  occ. eigenvalues --  -24.82804 -24.82749 -24.82678 -24.82426 -19.32922
 Alpha  occ. eigenvalues --  -19.24856 -19.24056 -19.23958 -14.52608 -14.51418
 Alpha  occ. eigenvalues --  -14.51392 -10.59538 -10.55306 -10.53285 -10.48910
 Alpha  occ. eigenvalues --  -10.45858 -10.45810 -10.45770 -10.32136 -10.32113
 Alpha  occ. eigenvalues --  -10.26969 -10.26948  -1.43198  -1.41668  -1.38919
 Alpha  occ. eigenvalues --   -1.35386  -1.33508  -1.33255  -1.32662  -1.32071
 Alpha  occ. eigenvalues --   -1.31442  -1.22574  -1.20501  -1.17501  -1.17304
 Alpha  occ. eigenvalues --   -1.09403  -1.07758  -1.06624  -0.93403  -0.88551
 Alpha  occ. eigenvalues --   -0.86280  -0.84156  -0.81918  -0.79196  -0.79061
 Alpha  occ. eigenvalues --   -0.76946  -0.74006  -0.73412  -0.72695  -0.71220
 Alpha  occ. eigenvalues --   -0.70402  -0.69350  -0.68807  -0.68236  -0.66990
 Alpha  occ. eigenvalues --   -0.66385  -0.65563  -0.64202  -0.62116  -0.59939
 Alpha  occ. eigenvalues --   -0.59666  -0.57733  -0.57550  -0.57091  -0.56697
 Alpha  occ. eigenvalues --   -0.56102  -0.55833  -0.55539  -0.54782  -0.54226
 Alpha  occ. eigenvalues --   -0.54053  -0.54035  -0.53574  -0.53134  -0.52842
 Alpha  occ. eigenvalues --   -0.52250  -0.51882  -0.51270  -0.51001  -0.50649
 Alpha  occ. eigenvalues --   -0.50580  -0.50288  -0.49933  -0.49785  -0.48950
 Alpha  occ. eigenvalues --   -0.48629  -0.46415  -0.45965  -0.45542  -0.44587
 Alpha  occ. eigenvalues --   -0.42603  -0.42170  -0.39840  -0.38346  -0.37916
 Alpha  occ. eigenvalues --   -0.36251  -0.32191  -0.30821
 Alpha virt. eigenvalues --   -0.01020   0.00522   0.03500   0.05878   0.08575
 Alpha virt. eigenvalues --    0.09335   0.12898   0.14160   0.15914   0.16933
 Alpha virt. eigenvalues --    0.17427   0.17612   0.19058   0.20123   0.20519

 Mulliken charges:
               1
     1  C   -0.268704
     2  C    0.117875
     3  N   -0.586570
     4  C    0.794853
     5  O   -0.464963
     6  N   -0.585334
     7  C    0.118066
     8  C   -0.268627
     9  C    0.829367
    10  O   -0.496910
    11  N   -0.656794
    12  C    0.762794
    13  F   -0.260396
    14  F   -0.257511
    15  C    0.440186
    16  F   -0.253729
    17  O   -0.505026
    18  C    0.995467
    19  F   -0.240170
    20  F   -0.242940
    21  F   -0.243526
    22  C    0.810924
    23  F   -0.246223
    24  F   -0.260281
    25  F   -0.243931
    26  C    0.842768
    27  O   -0.498133
    28  H    0.136698
    29  H    0.129995
    30  H    0.166850
    31  H    0.166870
    32  H    0.136941
    33  H    0.130114
 Sum of Mulliken charges =   0.00000

 Dipole moment (field-independent basis, Debye):
    X=             -2.6025    Y=             -0.1570    Z=             -1.3807  Tot=              2.9502
 Quadrupole moment (field-independent basis, Debye-Ang):
   XX=           -147.8970   YY=           -145.7758   ZZ=           -146.1911
   XY=             -2.3199   XZ=              3.1528   YZ=              0.7651

 Normal termination of Gaussian 09 at Sun Mar  3 17:58:59 2024.
