 Gaussian 09, Revision D.01,
 Gaussian 09:  ES64L-G09RevD.01 24-Apr-2013

 ----------------------------------------------------------------------
 #p CAM-B3LYP/6-31G(d,p) SCRF=(PCM,Solvent=Generic,Read) NoSymm out=wfn
 ----------------------------------------------------------------------

 -------------------
 Title A891690740_p1
 -------------------
 Symbolic Z-matrix:
 Charge =  1 Multiplicity = 2

                          Input orientation:
 ---------------------------------------------------------------------
 Center     Atomic      Atomic             Coordinates (Angstroms)
 Number     Number       Type             X           Y           Z
 ---------------------------------------------------------------------
      1          6           0        5.316184   -1.827646    1.029571
      2          6           0        4.414631   -2.550324    0.040722
      3          6           0        3.298709   -1.669205   -0.522727
      4          6           0        2.279113   -1.232511    0.534194
      5          7           0        1.177521   -0.479013   -0.068616
      6          6           0        1.311982    0.889801   -0.183492
      7          8           0        2.336352    1.479040    0.164201
      8          7           0        0.215900    1.559439   -0.686831
      9          6           0        0.237720    3.022094   -0.680682
     10          6           0       -0.222512    3.589622    0.664468
     11          6           0       -0.203832    5.109275    0.662079
     12          6           0       -0.950204    0.921850   -1.057063
     13          8           0       -1.992745    1.549756   -1.242016
     14          7           0       -0.881390   -0.442705   -1.179663
     15          6           0       -2.078827   -1.147218   -1.611532
     16          9           0       -2.687676   -0.421072   -2.594909
     17          9           0       -1.701978   -2.287864   -2.259249
     18          6           0       -3.098579   -1.476031   -0.489579
     19          9           0       -2.536337   -2.359344    0.386934
     20          8           0       -3.363282   -0.299715    0.283344
     21          6           0       -4.448538   -0.442263    1.159751
     22          9           0       -4.395895   -1.615045    1.809393
     23          9           0       -4.400368    0.554546    2.063073
     24          9           0       -5.595552   -0.344269    0.469423
     25          6           0       -4.287509   -2.135510   -1.202721
     26          9           0       -3.926646   -3.187837   -1.968745
     27          9           0       -5.195603   -2.611475   -0.315669
     28          9           0       -4.947217   -1.263738   -1.998140
     29          6           0        0.084613   -1.176455   -0.541100
     30          8           0       -0.019455   -2.391610   -0.378206
     31          1           0        6.148737   -2.475886    1.321421
     32          1           0        5.734270   -0.917563    0.587969
     33          1           0        4.775411   -1.554241    1.940235
     34          1           0        3.984268   -3.437479    0.519612
     35          1           0        5.029554   -2.907763   -0.793871
     36          1           0        3.733853   -0.787217   -1.008671
     37          1           0        2.782765   -2.230095   -1.312237
     38          1           0        2.761348   -0.609648    1.295353
     39          1           0        1.879173   -2.112584    1.051081
     40          1           0       -0.408849    3.395241   -1.484063
     41          1           0        1.253902    3.368841   -0.903133
     42          1           0        0.424896    3.221646    1.469094
     43          1           0       -1.236469    3.241011    0.893144
     44          1           0       -0.871547    5.508406   -0.108076
     45          1           0        0.805403    5.488728    0.473011
     46          1           0       -0.535293    5.494031    1.631600
 ---------------------------------------------------------------------

 SCF Done:  E(UCAM-B3LYP) =  -1905.96327946     A.U. after   44 cycles

 Alpha  occ. eigenvalues --  -24.86734 -24.86446 -24.85786 -24.85760 -24.85669
 Alpha  occ. eigenvalues --  -24.85466 -24.85416 -24.85100 -24.84717 -19.35967
 Alpha  occ. eigenvalues --  -19.33836 -19.31548 -19.29976 -14.63532 -14.60367
 Alpha  occ. eigenvalues --  -14.58721 -10.61911 -10.57673 -10.57357 -10.53443
 Alpha  occ. eigenvalues --  -10.52199 -10.52088 -10.51845 -10.38607 -10.37040
 Alpha  occ. eigenvalues --  -10.32506 -10.31016 -10.28950 -10.28875 -10.26975
 Alpha  occ. eigenvalues --   -1.45414  -1.43990  -1.42534  -1.38578  -1.35692
 Alpha  occ. eigenvalues --   -1.35643  -1.35347  -1.34418  -1.34133  -1.30528
 Alpha  occ. eigenvalues --   -1.25581  -1.24284  -1.23427  -1.17168  -1.15211
 Alpha  occ. eigenvalues --   -1.14134  -0.97187  -0.95445  -0.93947  -0.90019
 Alpha  occ. eigenvalues --   -0.88649  -0.87624  -0.84832  -0.83366  -0.82356
 Alpha  occ. eigenvalues --   -0.81309  -0.79084  -0.77793  -0.75855  -0.75267
 Alpha  occ. eigenvalues --   -0.74047  -0.73104  -0.72478  -0.71409  -0.70801
 Alpha  occ. eigenvalues --   -0.70200  -0.69686  -0.69185  -0.68195  -0.67821
 Alpha  occ. eigenvalues --   -0.66803  -0.63926  -0.63331  -0.62571  -0.62228
 Alpha  occ. eigenvalues --   -0.61049  -0.60771  -0.60365  -0.59509  -0.59295
 Alpha  occ. eigenvalues --   -0.58739  -0.58583  -0.58477  -0.58002  -0.57510
 Alpha  occ. eigenvalues --   -0.57343  -0.56634  -0.56132  -0.55338  -0.54850
 Alpha  occ. eigenvalues --   -0.54721  -0.54201  -0.54002  -0.53733  -0.52954
 Alpha  occ. eigenvalues --   -0.52596  -0.52138  -0.52024  -0.51704  -0.51313
 Alpha  occ. eigenvalues --   -0.51026  -0.50992  -0.49614  -0.49230  -0.48111
 Alpha  occ. eigenvalues --   -0.47751  -0.47473  -0.46930  -0.46224  -0.45625
 Alpha  occ. eigenvalues --   -0.44833  -0.44743  -0.44275  -0.42974  -0.42712
 Alpha  occ. eigenvalues --   -0.42688  -0.41822
 Alpha virt. eigenvalues --   -0.06316  -0.05394   0.02248   0.03624   0.06161
 Alpha virt. eigenvalues --    0.08741   0.09517   0.10983   0.11137   0.11940
 Alpha virt. eigenvalues --    0.13568   0.13702   0.14400   0.14631   0.15120

  Beta  occ. eigenvalues --  -24.86724 -24.86444 -24.85783 -24.85760 -24.85669
  Beta  occ. eigenvalues --  -24.85466 -24.85416 -24.85100 -24.84717 -19.35965
  Beta  occ. eigenvalues --  -19.33262 -19.31194 -19.30094 -14.62548 -14.59764
  Beta  occ. eigenvalues --  -14.58770 -10.61911 -10.57674 -10.57356 -10.53629
  Beta  occ. eigenvalues --  -10.52323 -10.52090 -10.51933 -10.38579 -10.37017
  Beta  occ. eigenvalues --  -10.32369 -10.30929 -10.28934 -10.28858 -10.26973
  Beta  occ. eigenvalues --   -1.45413  -1.43988  -1.42527  -1.38573  -1.35681
  Beta  occ. eigenvalues --   -1.35642  -1.35346  -1.34415  -1.34133  -1.29822
  Beta  occ. eigenvalues --   -1.24779  -1.23943  -1.23400  -1.16359  -1.14180
  Beta  occ. eigenvalues --   -1.13215  -0.97107  -0.95120  -0.93578  -0.89922
  Beta  occ. eigenvalues --   -0.88480  -0.87379  -0.84806  -0.83123  -0.82112
  Beta  occ. eigenvalues --   -0.81034  -0.78996  -0.77588  -0.75778  -0.75189
  Beta  occ. eigenvalues --   -0.73498  -0.73036  -0.72363  -0.71239  -0.70786
  Beta  occ. eigenvalues --   -0.69726  -0.69559  -0.69101  -0.68017  -0.66972
  Beta  occ. eigenvalues --   -0.66213  -0.63439  -0.62828  -0.62367  -0.61028
  Beta  occ. eigenvalues --   -0.60619  -0.60254  -0.59850  -0.59308  -0.58987
  Beta  occ. eigenvalues --   -0.58633  -0.58404  -0.58276  -0.57928  -0.57483
  Beta  occ. eigenvalues --   -0.57154  -0.56535  -0.56084  -0.55101  -0.54811
  Beta  occ. eigenvalues --   -0.54309  -0.53982  -0.53792  -0.53187  -0.52936
  Beta  occ. eigenvalues --   -0.52537  -0.52113  -0.51733  -0.51578  -0.51128
  Beta  occ. eigenvalues --   -0.50991  -0.50325  -0.48936  -0.48907  -0.47689
  Beta  occ. eigenvalues --   -0.47471  -0.46422  -0.46210  -0.45744  -0.44801
  Beta  occ. eigenvalues --   -0.44007  -0.43170  -0.42806  -0.42576  -0.42333
  Beta  occ. eigenvalues --   -0.39878
  Beta virt. eigenvalues --   -0.28255  -0.05692  -0.04358   0.02261   0.04660
  Beta virt. eigenvalues --    0.06454   0.08913   0.09738   0.11156   0.11306
  Beta virt. eigenvalues --    0.12087   0.13624   0.13768   0.14464   0.14680

 Mulliken charges and spin densities:
               1          2
     1  C   -0.329379   0.001260
     2  C   -0.193020   0.009532
     3  C   -0.197958   0.042786
     4  C   -0.086297   0.006221
     5  N   -0.524637   0.274714
     6  C    0.857911  -0.054181
     7  O   -0.462180  -0.041686
     8  N   -0.473686   0.446432
     9  C   -0.094262   0.006783
    10  C   -0.206345   0.069738
    11  C   -0.331686   0.009918
    12  C    0.884276  -0.107171
    13  O   -0.386230   0.224501
    14  N   -0.642419  -0.013177
    15  C    0.761359  -0.000939
    16  F   -0.246532   0.001999
    17  F   -0.245567   0.000574
    18  C    0.440249  -0.000501
    19  F   -0.251871   0.000631
    20  O   -0.515445   0.000420
    21  C    1.001257   0.000017
    22  F   -0.239086   0.000030
    23  F   -0.237268   0.000000
    24  F   -0.238375   0.000008
    25  C    0.820070  -0.000114
    26  F   -0.239876   0.000003
    27  F   -0.254211  -0.000036
    28  F   -0.242765   0.000012
    29  C    0.869994  -0.070634
    30  O   -0.421196   0.140060
    31  H    0.125207   0.001160
    32  H    0.119119  -0.000105
    33  H    0.112045   0.001241
    34  H    0.121791  -0.000371
    35  H    0.132668   0.007953
    36  H    0.140111  -0.001472
    37  H    0.138141  -0.000400
    38  H    0.191896   0.008136
    39  H    0.194408   0.005764
    40  H    0.207536   0.011146
    41  H    0.213387   0.014520
    42  H    0.154436  -0.002191
    43  H    0.154059  -0.000669
    44  H    0.135923  -0.000422
    45  H    0.136281   0.000323
    46  H    0.148169   0.008185
 Sum of Mulliken charges =   1.00000   1.00000

 Dipole moment (field-independent basis, Debye):
    X=              4.2216    Y=              4.6489    Z=             -1.0161  Tot=              6.3613
 Quadrupole moment (field-independent basis, Debye-Ang):
   XX=           -150.4626   YY=           -138.0083   ZZ=           -157.8079
   XY=            -10.4715   XZ=             -2.7389   YZ=             -2.3988

 Normal termination of Gaussian 09 at Sun Mar  3 18:05:43 2024.
