 Gaussian 09, Revision D.01,
 Gaussian 09:  ES64L-G09RevD.01 24-Apr-2013

 ----------------------------------------------------------------------
 #p CAM-B3LYP/6-31G(d,p) SCRF=(PCM,Solvent=Generic,Read) NoSymm out=wfn
 ----------------------------------------------------------------------

 ------------------
 Title A891690740_0
 ------------------
 Symbolic Z-matrix:
 Charge =  0 Multiplicity = 1

                          Input orientation:
 ---------------------------------------------------------------------
 Center     Atomic      Atomic             Coordinates (Angstroms)
 Number     Number       Type             X           Y           Z
 ---------------------------------------------------------------------
      1          6           0        5.316184   -1.827646    1.029571
      2          6           0        4.414631   -2.550324    0.040722
      3          6           0        3.298709   -1.669205   -0.522727
      4          6           0        2.279113   -1.232511    0.534194
      5          7           0        1.177521   -0.479013   -0.068616
      6          6           0        1.311982    0.889801   -0.183492
      7          8           0        2.336352    1.479040    0.164201
      8          7           0        0.215900    1.559439   -0.686831
      9          6           0        0.237720    3.022094   -0.680682
     10          6           0       -0.222512    3.589622    0.664468
     11          6           0       -0.203832    5.109275    0.662079
     12          6           0       -0.950204    0.921850   -1.057063
     13          8           0       -1.992745    1.549756   -1.242016
     14          7           0       -0.881390   -0.442705   -1.179663
     15          6           0       -2.078827   -1.147218   -1.611532
     16          9           0       -2.687676   -0.421072   -2.594909
     17          9           0       -1.701978   -2.287864   -2.259249
     18          6           0       -3.098579   -1.476031   -0.489579
     19          9           0       -2.536337   -2.359344    0.386934
     20          8           0       -3.363282   -0.299715    0.283344
     21          6           0       -4.448538   -0.442263    1.159751
     22          9           0       -4.395895   -1.615045    1.809393
     23          9           0       -4.400368    0.554546    2.063073
     24          9           0       -5.595552   -0.344269    0.469423
     25          6           0       -4.287509   -2.135510   -1.202721
     26          9           0       -3.926646   -3.187837   -1.968745
     27          9           0       -5.195603   -2.611475   -0.315669
     28          9           0       -4.947217   -1.263738   -1.998140
     29          6           0        0.084613   -1.176455   -0.541100
     30          8           0       -0.019455   -2.391610   -0.378206
     31          1           0        6.148737   -2.475886    1.321421
     32          1           0        5.734270   -0.917563    0.587969
     33          1           0        4.775411   -1.554241    1.940235
     34          1           0        3.984268   -3.437479    0.519612
     35          1           0        5.029554   -2.907763   -0.793871
     36          1           0        3.733853   -0.787217   -1.008671
     37          1           0        2.782765   -2.230095   -1.312237
     38          1           0        2.761348   -0.609648    1.295353
     39          1           0        1.879173   -2.112584    1.051081
     40          1           0       -0.408849    3.395241   -1.484063
     41          1           0        1.253902    3.368841   -0.903133
     42          1           0        0.424896    3.221646    1.469094
     43          1           0       -1.236469    3.241011    0.893144
     44          1           0       -0.871547    5.508406   -0.108076
     45          1           0        0.805403    5.488728    0.473011
     46          1           0       -0.535293    5.494031    1.631600
 ---------------------------------------------------------------------

 SCF Done:  E(RCAM-B3LYP) =  -1906.27679856     A.U. after   13 cycles

 Alpha  occ. eigenvalues --  -24.83566 -24.83457 -24.83341 -24.83200 -24.82858
 Alpha  occ. eigenvalues --  -24.82579 -24.82535 -24.82459 -24.82368 -19.32856
 Alpha  occ. eigenvalues --  -19.22895 -19.22797 -19.22444 -14.51810 -14.49236
 Alpha  occ. eigenvalues --  -14.49144 -10.59488 -10.55215 -10.52827 -10.48720
 Alpha  occ. eigenvalues --  -10.44693 -10.44667 -10.43604 -10.30842 -10.30773
 Alpha  occ. eigenvalues --  -10.26131 -10.26009 -10.25553 -10.24990 -10.24497
 Alpha  occ. eigenvalues --   -1.43150  -1.41582  -1.38607  -1.35399  -1.33467
 Alpha  occ. eigenvalues --   -1.33213  -1.32577  -1.31983  -1.31137  -1.21425
 Alpha  occ. eigenvalues --   -1.20384  -1.16324  -1.16078  -1.08415  -1.06105
 Alpha  occ. eigenvalues --   -1.04592  -0.93234  -0.89209  -0.87826  -0.84409
 Alpha  occ. eigenvalues --   -0.82484  -0.81764  -0.80481  -0.77626  -0.76844
 Alpha  occ. eigenvalues --   -0.74918  -0.73324  -0.72846  -0.72165  -0.71613
 Alpha  occ. eigenvalues --   -0.70326  -0.69592  -0.68450  -0.68187  -0.67281
 Alpha  occ. eigenvalues --   -0.66417  -0.66215  -0.65393  -0.64194  -0.60527
 Alpha  occ. eigenvalues --   -0.59715  -0.59467  -0.57412  -0.56994  -0.56172
 Alpha  occ. eigenvalues --   -0.55968  -0.55689  -0.55481  -0.54877  -0.54716
 Alpha  occ. eigenvalues --   -0.54611  -0.54331  -0.53681  -0.53296  -0.52883
 Alpha  occ. eigenvalues --   -0.52773  -0.52522  -0.52029  -0.51789  -0.51565
 Alpha  occ. eigenvalues --   -0.50995  -0.50550  -0.50269  -0.49871  -0.49671
 Alpha  occ. eigenvalues --   -0.49333  -0.48797  -0.48616  -0.47888  -0.47843
 Alpha  occ. eigenvalues --   -0.46155  -0.45629  -0.45466  -0.44396  -0.43832
 Alpha  occ. eigenvalues --   -0.43342  -0.41882  -0.40586  -0.39904  -0.39639
 Alpha  occ. eigenvalues --   -0.39296  -0.38708  -0.38346  -0.37383  -0.35446
 Alpha  occ. eigenvalues --   -0.34842  -0.34330
 Alpha virt. eigenvalues --    0.01852   0.02670   0.06062   0.09467   0.12599
 Alpha virt. eigenvalues --    0.13183   0.14492   0.15010   0.16551   0.17509
 Alpha virt. eigenvalues --    0.17843   0.17998   0.18214   0.18748   0.19746

 Mulliken charges:
               1
     1  C   -0.323362
     2  C   -0.187102
     3  C   -0.181976
     4  C   -0.056487
     5  N   -0.580957
     6  C    0.827833
     7  O   -0.529046
     8  N   -0.575069
     9  C   -0.050725
    10  C   -0.186443
    11  C   -0.328272
    12  C    0.834404
    13  O   -0.509935
    14  N   -0.637486
    15  C    0.759963
    16  F   -0.257637
    17  F   -0.259170
    18  C    0.437100
    19  F   -0.256547
    20  O   -0.504892
    21  C    0.995311
    22  F   -0.243552
    23  F   -0.240410
    24  F   -0.243607
    25  C    0.811774
    26  F   -0.244217
    27  F   -0.260790
    28  F   -0.246511
    29  C    0.827498
    30  O   -0.514872
    31  H    0.107388
    32  H    0.110968
    33  H    0.107580
    34  H    0.103956
    35  H    0.104893
    36  H    0.113378
    37  H    0.110714
    38  H    0.148295
    39  H    0.148375
    40  H    0.145230
    41  H    0.148365
    42  H    0.115418
    43  H    0.119238
    44  H    0.113799
    45  H    0.113022
    46  H    0.114562
 Sum of Mulliken charges =   0.00000

 Dipole moment (field-independent basis, Debye):
    X=              2.5595    Y=              1.4135    Z=              0.7849  Tot=              3.0274
 Quadrupole moment (field-independent basis, Debye-Ang):
   XX=           -174.4006   YY=           -169.4001   ZZ=           -166.2338
   XY=             -5.8776   XZ=             -5.4761   YZ=             -1.8669

 Normal termination of Gaussian 09 at Sun Mar  3 18:03:23 2024.
