 Gaussian 09, Revision D.01,
 Gaussian 09:  ES64L-G09RevD.01 24-Apr-2013

 ----------------------------------------------------------------------
 #p CAM-B3LYP/6-31G(d,p) SCRF=(PCM,Solvent=Generic,Read) NoSymm out=wfn
 ----------------------------------------------------------------------

 -------------------
 Title A591161041_p1
 -------------------
 Symbolic Z-matrix:
 Charge =  1 Multiplicity = 2

                          Input orientation:
 ---------------------------------------------------------------------
 Center     Atomic      Atomic             Coordinates (Angstroms)
 Number     Number       Type             X           Y           Z
 ---------------------------------------------------------------------
      1          8           0        1.621802   -3.351478   -1.421259
      2          6           0        0.933808   -2.386870   -1.107763
      3          7           0       -0.390412   -2.406873   -1.427041
      4          6           0       -1.144013   -1.213255   -1.329572
      5          7           0       -0.864330   -0.616732   -0.065560
      6          6           0       -1.827144    0.204152    0.671262
      7          9           0       -1.754435   -0.234664    1.968890
      8          9           0       -1.377479    1.489149    0.688365
      9          6           0       -3.341799    0.216389    0.311211
     10          9           0       -3.724807   -1.057497   -0.000674
     11          8           0       -4.088184    0.573643    1.487536
     12          6           0       -5.458165    0.748528    1.243691
     13          9           0       -5.931679   -0.199509    0.419449
     14          9           0       -5.656212    1.962457    0.703665
     15          9           0       -6.119127    0.681392    2.412858
     16          6           0       -3.518679    1.157798   -0.885915
     17          9           0       -3.305092    2.449807   -0.559709
     18          9           0       -4.768890    1.080881   -1.398984
     19          9           0       -2.679432    0.858029   -1.903229
     20          6           0        0.458545   -0.567385    0.344397
     21          8           0        0.793000    0.054890    1.344885
     22          7           0        1.359336   -1.268540   -0.428710
     23          6           0        2.784140   -1.233659   -0.113291
     24          9           0        3.056281   -2.183223    0.823208
     25          9           0        3.445761   -1.624349   -1.248529
     26          6           0        3.422965    0.116831    0.310110
     27          9           0        3.136752    0.387774    1.615898
     28          8           0        2.851074    1.169647   -0.484927
     29          6           0        3.479584    2.408114   -0.274872
     30          9           0        4.623929    2.440291   -0.978549
     31          9           0        3.730179    2.632811    1.022187
     32          9           0        2.667917    3.376796   -0.739970
     33          6           0        4.940874   -0.082834    0.186078
     34          9           0        5.338206   -0.174767   -1.104141
     35          9           0        5.618358    0.966162    0.716368
     36          9           0        5.381701   -1.184651    0.830320
     37          1           0       -0.670157   -3.163574   -2.040548
     38          1           0       -0.834263   -0.535871   -2.132191
     39          1           0       -2.189914   -1.489812   -1.446815
 ---------------------------------------------------------------------

 SCF Done:  E(UCAM-B3LYP) =  -2682.18286742     A.U. after   47 cycles

 Alpha  occ. eigenvalues --  -24.89718 -24.88415 -24.88193 -24.87341 -24.86174
 Alpha  occ. eigenvalues --  -24.86087 -24.85904 -24.85893 -24.85872 -24.85769
 Alpha  occ. eigenvalues --  -24.85547 -24.85484 -24.85464 -24.85411 -24.85406
 Alpha  occ. eigenvalues --  -24.85270 -24.85148 -24.84641 -19.47286 -19.36305
 Alpha  occ. eigenvalues --  -19.35751 -19.29906 -14.61530 -14.58660 -14.56016
 Alpha  occ. eigenvalues --  -10.61956 -10.61753 -10.59153 -10.58942 -10.58188
 Alpha  occ. eigenvalues --  -10.57349 -10.56463 -10.52985 -10.52958 -10.51928
 Alpha  occ. eigenvalues --  -10.43754  -1.45945  -1.45807  -1.45077  -1.44780
 Alpha  occ. eigenvalues --   -1.43759  -1.41572  -1.39761  -1.38735  -1.37831
 Alpha  occ. eigenvalues --   -1.37517  -1.36797  -1.35652  -1.35623  -1.35481
 Alpha  occ. eigenvalues --   -1.35423  -1.34974  -1.34957  -1.34444  -1.34285
 Alpha  occ. eigenvalues --   -1.26853  -1.23636  -1.23220  -1.19843  -1.16281
 Alpha  occ. eigenvalues --   -1.11571  -0.97934  -0.97004  -0.92803  -0.90450
 Alpha  occ. eigenvalues --   -0.88639  -0.85853  -0.84640  -0.83672  -0.81106
 Alpha  occ. eigenvalues --   -0.78924  -0.78288  -0.77635  -0.76148  -0.75394
 Alpha  occ. eigenvalues --   -0.74562  -0.74221  -0.74015  -0.73746  -0.72999
 Alpha  occ. eigenvalues --   -0.72680  -0.72161  -0.71890  -0.71519  -0.71204
 Alpha  occ. eigenvalues --   -0.70931  -0.70545  -0.70495  -0.69418  -0.69164
 Alpha  occ. eigenvalues --   -0.68709  -0.68539  -0.67170  -0.66793  -0.64021
 Alpha  occ. eigenvalues --   -0.63514  -0.62957  -0.62198  -0.60791  -0.60586
 Alpha  occ. eigenvalues --   -0.60458  -0.60199  -0.59954  -0.59558  -0.59275
 Alpha  occ. eigenvalues --   -0.59120  -0.58781  -0.58506  -0.58173  -0.57927
 Alpha  occ. eigenvalues --   -0.57618  -0.57425  -0.57034  -0.56681  -0.56372
 Alpha  occ. eigenvalues --   -0.56080  -0.55968  -0.55507  -0.55265  -0.55009
 Alpha  occ. eigenvalues --   -0.54489  -0.54286  -0.54184  -0.53757  -0.53538
 Alpha  occ. eigenvalues --   -0.53394  -0.53010  -0.52651  -0.52485  -0.52313
 Alpha  occ. eigenvalues --   -0.51842  -0.51780  -0.51710  -0.51444  -0.50182
 Alpha  occ. eigenvalues --   -0.49271  -0.48893  -0.47675  -0.47303  -0.45902
 Alpha  occ. eigenvalues --   -0.43231  -0.42544
 Alpha virt. eigenvalues --   -0.08113  -0.02459   0.01256   0.02448   0.03803
 Alpha virt. eigenvalues --    0.05664   0.06383   0.09220   0.10914   0.12662
 Alpha virt. eigenvalues --    0.12998   0.13635   0.14139   0.14586   0.15373

  Beta  occ. eigenvalues --  -24.89611 -24.88403 -24.88190 -24.87341 -24.86174
  Beta  occ. eigenvalues --  -24.86087 -24.85902 -24.85893 -24.85872 -24.85769
  Beta  occ. eigenvalues --  -24.85547 -24.85473 -24.85464 -24.85407 -24.85405
  Beta  occ. eigenvalues --  -24.85270 -24.85147 -24.84634 -19.45086 -19.36306
  Beta  occ. eigenvalues --  -19.35751 -19.29818 -14.61427 -14.58387 -14.55968
  Beta  occ. eigenvalues --  -10.61956 -10.61753 -10.59160 -10.58942 -10.58188
  Beta  occ. eigenvalues --  -10.57512 -10.56466 -10.52973 -10.52958 -10.51941
  Beta  occ. eigenvalues --  -10.43724  -1.45943  -1.45740  -1.45020  -1.44779
  Beta  occ. eigenvalues --   -1.43724  -1.41564  -1.39759  -1.38662  -1.37718
  Beta  occ. eigenvalues --   -1.36794  -1.35651  -1.35622  -1.35480  -1.35422
  Beta  occ. eigenvalues --   -1.34970  -1.34957  -1.34450  -1.34275  -1.33651
  Beta  occ. eigenvalues --   -1.26180  -1.23627  -1.23218  -1.19066  -1.15935
  Beta  occ. eigenvalues --   -1.11064  -0.97850  -0.96958  -0.92378  -0.90127
  Beta  occ. eigenvalues --   -0.87955  -0.85809  -0.84592  -0.83582  -0.80933
  Beta  occ. eigenvalues --   -0.78886  -0.77610  -0.77266  -0.76100  -0.75261
  Beta  occ. eigenvalues --   -0.74529  -0.73991  -0.73892  -0.73358  -0.72681
  Beta  occ. eigenvalues --   -0.72153  -0.71886  -0.71730  -0.71308  -0.71038
  Beta  occ. eigenvalues --   -0.70811  -0.70376  -0.70187  -0.69337  -0.68982
  Beta  occ. eigenvalues --   -0.68570  -0.68349  -0.66946  -0.65295  -0.63706
  Beta  occ. eigenvalues --   -0.63170  -0.62289  -0.60812  -0.60471  -0.60361
  Beta  occ. eigenvalues --   -0.60177  -0.59866  -0.59628  -0.59279  -0.59173
  Beta  occ. eigenvalues --   -0.58782  -0.58496  -0.58223  -0.57983  -0.57838
  Beta  occ. eigenvalues --   -0.57383  -0.57011  -0.56781  -0.56582  -0.56079
  Beta  occ. eigenvalues --   -0.55897  -0.55569  -0.55296  -0.54985  -0.54502
  Beta  occ. eigenvalues --   -0.54316  -0.54168  -0.53725  -0.53537  -0.53383
  Beta  occ. eigenvalues --   -0.53012  -0.52646  -0.52476  -0.52316  -0.51880
  Beta  occ. eigenvalues --   -0.51777  -0.51676  -0.51436  -0.49384  -0.49187
  Beta  occ. eigenvalues --   -0.48883  -0.47596  -0.47294  -0.45423  -0.42535
  Beta  occ. eigenvalues --   -0.42165
  Beta virt. eigenvalues --   -0.29409  -0.07633  -0.02337   0.01282   0.02530
  Beta virt. eigenvalues --    0.03826   0.05726   0.06482   0.09254   0.11217
  Beta virt. eigenvalues --    0.12798   0.13119   0.13754   0.14319   0.14666

 Mulliken charges and spin densities:
               1          2
     1  O   -0.152715   0.829214
     2  C    0.918745  -0.084624
     3  N   -0.521591   0.108296
     4  C    0.079383   0.012344
     5  N   -0.592493   0.021117
     6  C    0.793776  -0.001369
     7  F   -0.265519   0.001604
     8  F   -0.248021   0.000739
     9  C    0.383677   0.000074
    10  F   -0.257876   0.000008
    11  O   -0.499509  -0.000016
    12  C    1.000496  -0.000001
    13  F   -0.242448   0.000002
    14  F   -0.240753   0.000001
    15  F   -0.231014  -0.000001
    16  C    0.821781   0.000017
    17  F   -0.229507   0.000033
    18  F   -0.245508   0.000051
    19  F   -0.240102   0.000546
    20  C    0.897023  -0.007149
    21  O   -0.438686   0.033024
    22  N   -0.636693   0.045093
    23  C    0.776984  -0.006038
    24  F   -0.229113   0.003330
    25  F   -0.253986   0.025191
    26  C    0.414688   0.003663
    27  F   -0.239897   0.002756
    28  O   -0.519783  -0.000027
    29  C    1.001940   0.000018
    30  F   -0.240513   0.000007
    31  F   -0.232486   0.000009
    32  F   -0.236047   0.000006
    33  C    0.823284   0.000204
    34  F   -0.243501   0.000836
    35  F   -0.250623   0.000221
    36  F   -0.237033   0.000015
    37  H    0.377278  -0.002797
    38  H    0.223812   0.014470
    39  H    0.212549  -0.000868
 Sum of Mulliken charges =   1.00000   1.00000

 Dipole moment (field-independent basis, Debye):
    X=             -1.1825    Y=            -10.0438    Z=             -8.2336  Tot=             13.0410
 Quadrupole moment (field-independent basis, Debye-Ang):
   XX=           -170.5568   YY=           -159.6254   ZZ=           -177.3614
   XY=              0.6061   XZ=              2.7442   YZ=             15.2412

 Normal termination of Gaussian 09 at Sun Mar  3 18:08:48 2024.
