 Gaussian 09, Revision D.01,
 Gaussian 09:  ES64L-G09RevD.01 24-Apr-2013

 ----------------------------------------------------------------------
 #p CAM-B3LYP/6-31G(d,p) SCRF=(PCM,Solvent=Generic,Read) NoSymm out=wfn
 ----------------------------------------------------------------------

 ------------------
 Title A591161041_0
 ------------------
 Symbolic Z-matrix:
 Charge =  0 Multiplicity = 1

                          Input orientation:
 ---------------------------------------------------------------------
 Center     Atomic      Atomic             Coordinates (Angstroms)
 Number     Number       Type             X           Y           Z
 ---------------------------------------------------------------------
      1          8           0        1.621802   -3.351478   -1.421259
      2          6           0        0.933808   -2.386870   -1.107763
      3          7           0       -0.390412   -2.406873   -1.427041
      4          6           0       -1.144013   -1.213255   -1.329572
      5          7           0       -0.864330   -0.616732   -0.065560
      6          6           0       -1.827144    0.204152    0.671262
      7          9           0       -1.754435   -0.234664    1.968890
      8          9           0       -1.377479    1.489149    0.688365
      9          6           0       -3.341799    0.216389    0.311211
     10          9           0       -3.724807   -1.057497   -0.000674
     11          8           0       -4.088184    0.573643    1.487536
     12          6           0       -5.458165    0.748528    1.243691
     13          9           0       -5.931679   -0.199509    0.419449
     14          9           0       -5.656212    1.962457    0.703665
     15          9           0       -6.119127    0.681392    2.412858
     16          6           0       -3.518679    1.157798   -0.885915
     17          9           0       -3.305092    2.449807   -0.559709
     18          9           0       -4.768890    1.080881   -1.398984
     19          9           0       -2.679432    0.858029   -1.903229
     20          6           0        0.458545   -0.567385    0.344397
     21          8           0        0.793000    0.054890    1.344885
     22          7           0        1.359336   -1.268540   -0.428710
     23          6           0        2.784140   -1.233659   -0.113291
     24          9           0        3.056281   -2.183223    0.823208
     25          9           0        3.445761   -1.624349   -1.248529
     26          6           0        3.422965    0.116831    0.310110
     27          9           0        3.136752    0.387774    1.615898
     28          8           0        2.851074    1.169647   -0.484927
     29          6           0        3.479584    2.408114   -0.274872
     30          9           0        4.623929    2.440291   -0.978549
     31          9           0        3.730179    2.632811    1.022187
     32          9           0        2.667917    3.376796   -0.739970
     33          6           0        4.940874   -0.082834    0.186078
     34          9           0        5.338206   -0.174767   -1.104141
     35          9           0        5.618358    0.966162    0.716368
     36          9           0        5.381701   -1.184651    0.830320
     37          1           0       -0.670157   -3.163574   -2.040548
     38          1           0       -0.834263   -0.535871   -2.132191
     39          1           0       -2.189914   -1.489812   -1.446815
 ---------------------------------------------------------------------

 SCF Done:  E(RCAM-B3LYP) =  -2682.50690352     A.U. after   13 cycles

 Alpha  occ. eigenvalues --  -24.85404 -24.84509 -24.84086 -24.84003 -24.83929
 Alpha  occ. eigenvalues --  -24.83771 -24.83682 -24.83591 -24.83341 -24.83256
 Alpha  occ. eigenvalues --  -24.83170 -24.82545 -24.82500 -24.82325 -24.82313
 Alpha  occ. eigenvalues --  -24.82210 -24.81656 -24.81039 -19.33545 -19.32938
 Alpha  occ. eigenvalues --  -19.22868 -19.21174 -14.51345 -14.49679 -14.45836
 Alpha  occ. eigenvalues --  -10.60001 -10.59422 -10.56514 -10.55101 -10.52628
 Alpha  occ. eigenvalues --  -10.52467 -10.50095 -10.48682 -10.45053 -10.42967
 Alpha  occ. eigenvalues --  -10.36336  -1.43840  -1.43030  -1.42811  -1.41453
 Alpha  occ. eigenvalues --   -1.38259  -1.38155  -1.36855  -1.34804  -1.34351
 Alpha  occ. eigenvalues --   -1.33896  -1.33579  -1.33300  -1.33161  -1.33076
 Alpha  occ. eigenvalues --   -1.32447  -1.31877  -1.31190  -1.30793  -1.21037
 Alpha  occ. eigenvalues --   -1.20522  -1.20081  -1.15705  -1.09799  -1.07179
 Alpha  occ. eigenvalues --   -1.02131  -0.93973  -0.92941  -0.85430  -0.83986
 Alpha  occ. eigenvalues --   -0.82979  -0.81982  -0.80216  -0.78398  -0.76325
 Alpha  occ. eigenvalues --   -0.75675  -0.74016  -0.73152  -0.72323  -0.71717
 Alpha  occ. eigenvalues --   -0.71250  -0.70206  -0.70097  -0.70087  -0.69491
 Alpha  occ. eigenvalues --   -0.69284  -0.68630  -0.68104  -0.67868  -0.66868
 Alpha  occ. eigenvalues --   -0.66522  -0.65610  -0.65305  -0.64656  -0.63976
 Alpha  occ. eigenvalues --   -0.61908  -0.61059  -0.60328  -0.59664  -0.58515
 Alpha  occ. eigenvalues --   -0.58224  -0.57916  -0.57195  -0.56998  -0.56757
 Alpha  occ. eigenvalues --   -0.56454  -0.56126  -0.55851  -0.55426  -0.55223
 Alpha  occ. eigenvalues --   -0.55156  -0.54487  -0.54251  -0.54049  -0.53752
 Alpha  occ. eigenvalues --   -0.53432  -0.53048  -0.52916  -0.52632  -0.52241
 Alpha  occ. eigenvalues --   -0.52216  -0.52002  -0.51685  -0.51445  -0.51298
 Alpha  occ. eigenvalues --   -0.51008  -0.50781  -0.50481  -0.50263  -0.50104
 Alpha  occ. eigenvalues --   -0.50025  -0.49946  -0.49538  -0.49327  -0.49072
 Alpha  occ. eigenvalues --   -0.48842  -0.48487  -0.48157  -0.46282  -0.45633
 Alpha  occ. eigenvalues --   -0.45029  -0.43864  -0.38970  -0.37041  -0.36875
 Alpha  occ. eigenvalues --   -0.35249  -0.34145
 Alpha virt. eigenvalues --    0.02567   0.04570   0.05766   0.08175   0.08543
 Alpha virt. eigenvalues --    0.09348   0.12308   0.13348   0.16781   0.17523
 Alpha virt. eigenvalues --    0.17899   0.19000   0.19349   0.19666   0.20416

 Mulliken charges:
               1
     1  O   -0.525833
     2  C    0.780588
     3  N   -0.571223
     4  C    0.091395
     5  N   -0.587580
     6  C    0.782416
     7  F   -0.276702
     8  F   -0.260019
     9  C    0.384270
    10  F   -0.260205
    11  O   -0.504421
    12  C    0.996579
    13  F   -0.243786
    14  F   -0.243716
    15  F   -0.234888
    16  C    0.816897
    17  F   -0.235260
    18  F   -0.251917
    19  F   -0.236533
    20  C    0.859081
    21  O   -0.501604
    22  N   -0.648515
    23  C    0.788878
    24  F   -0.255793
    25  F   -0.273887
    26  C    0.411794
    27  F   -0.252957
    28  O   -0.518919
    29  C    0.994893
    30  F   -0.245778
    31  F   -0.237412
    32  F   -0.241484
    33  C    0.813672
    34  F   -0.248577
    35  F   -0.260820
    36  F   -0.242474
    37  H    0.316526
    38  H    0.158700
    39  H    0.164613
 Sum of Mulliken charges =   0.00000

 Dipole moment (field-independent basis, Debye):
    X=             -5.5529    Y=              0.0920    Z=             -3.8024  Tot=              6.7306
 Quadrupole moment (field-independent basis, Debye-Ang):
   XX=           -193.2536   YY=           -196.3890   ZZ=           -189.2749
   XY=             12.6105   XZ=              6.6445   YZ=              0.2670

 Normal termination of Gaussian 09 at Sun Mar  3 18:06:32 2024.
