 Gaussian 09, Revision D.01,
 Gaussian 09:  ES64L-G09RevD.01 24-Apr-2013

 ----------------------------------------------------------------------
 #p CAM-B3LYP/6-31G(d,p) SCRF=(PCM,Solvent=Generic,Read) NoSymm out=wfn
 ----------------------------------------------------------------------

 ------------------
 Title A902432811_0
 ------------------
 Symbolic Z-matrix:
 Charge =  0 Multiplicity = 1

                          Input orientation:
 ---------------------------------------------------------------------
 Center     Atomic      Atomic             Coordinates (Angstroms)
 Number     Number       Type             X           Y           Z
 ---------------------------------------------------------------------
      1          8           0       -0.719460    1.035468    0.133213
      2          6           0       -0.350421    0.381345   -0.832010
      3          7           0        0.793756    0.697013   -1.506455
      4          6           0        1.638919    1.792729   -1.063190
      5          9           0        2.229232    2.284367   -2.206989
      6          9           0        0.887016    2.838764   -0.621757
      7          6           0        2.791952    1.500045   -0.067168
      8          9           0        3.543502    0.476709   -0.598093
      9          8           0        3.650351    2.656049   -0.052296
     10          6           0        4.683145    2.578634    0.893654
     11          9           0        5.640719    3.464249    0.556655
     12          9           0        5.222710    1.349542    0.928868
     13          9           0        4.199672    2.912118    2.101230
     14          6           0        2.210102    1.064961    1.277739
     15          9           0        3.188917    0.760220    2.168417
     16          9           0        1.447078    2.018036    1.847834
     17          9           0        1.478554   -0.066185    1.158148
     18          6           0        1.361356   -0.249600   -2.411826
     19          8           0        0.311918   -0.769347   -3.191570
     20          6           0       -0.585445   -1.498421   -2.384016
     21          7           0       -1.039783   -0.711094   -1.271582
     22          6           0       -2.385288   -1.014591   -0.802904
     23          9           0       -2.616442   -2.333432   -1.119643
     24          9           0       -3.233447   -0.323523   -1.628735
     25          6           0       -2.873496   -0.816227    0.664111
     26          9           0       -2.857232    0.495822    1.010605
     27          8           0       -4.267546   -1.197509    0.693103
     28          6           0       -4.804978   -1.206307    1.990205
     29          9           0       -4.420801   -0.131121    2.700858
     30          9           0       -4.423103   -2.333799    2.623616
     31          9           0       -6.149279   -1.204276    1.898037
     32          6           0       -1.958143   -1.670112    1.547372
     33          9           0       -2.178897   -1.452747    2.869049
     34          9           0       -2.178225   -2.995390    1.332952
     35          9           0       -0.642441   -1.469392    1.335086
     36          1           0        1.878778   -1.042214   -1.857159
     37          1           0        2.072775    0.234213   -3.088828
     38          1           0       -1.431793   -1.780669   -3.018468
     39          1           0       -0.114235   -2.414427   -2.008062
 ---------------------------------------------------------------------

 SCF Done:  E(RCAM-B3LYP) =  -2628.35353795     A.U. after   13 cycles

 Alpha  occ. eigenvalues --  -24.83778 -24.83773 -24.83674 -24.83526 -24.83411
 Alpha  occ. eigenvalues --  -24.83324 -24.83296 -24.83213 -24.83190 -24.82923
 Alpha  occ. eigenvalues --  -24.82906 -24.82811 -24.82714 -24.82708 -24.81853
 Alpha  occ. eigenvalues --  -24.81766 -24.81710 -24.81205 -19.32865 -19.32452
 Alpha  occ. eigenvalues --  -19.27333 -19.20708 -14.48748 -14.48557 -10.59469
 Alpha  occ. eigenvalues --  -10.59240 -10.55547 -10.55267 -10.52042 -10.51947
 Alpha  occ. eigenvalues --  -10.48770 -10.48750 -10.43260 -10.37663 -10.37575
 Alpha  occ. eigenvalues --   -1.43131  -1.42695  -1.41763  -1.41497  -1.38070
 Alpha  occ. eigenvalues --   -1.37888  -1.35690  -1.34925  -1.33466  -1.33291
 Alpha  occ. eigenvalues --   -1.33098  -1.32938  -1.32864  -1.32407  -1.32090
 Alpha  occ. eigenvalues --   -1.31987  -1.30795  -1.30598  -1.20401  -1.20241
 Alpha  occ. eigenvalues --   -1.19701  -1.15701  -1.06830  -1.05700  -0.93228
 Alpha  occ. eigenvalues --   -0.92879  -0.85141  -0.84336  -0.82566  -0.82186
 Alpha  occ. eigenvalues --   -0.79490  -0.79051  -0.76487  -0.75356  -0.73497
 Alpha  occ. eigenvalues --   -0.72581  -0.71719  -0.71327  -0.70731  -0.70060
 Alpha  occ. eigenvalues --   -0.69639  -0.69132  -0.69023  -0.68711  -0.68415
 Alpha  occ. eigenvalues --   -0.68050  -0.67102  -0.66555  -0.65996  -0.65493
 Alpha  occ. eigenvalues --   -0.64594  -0.64390  -0.63116  -0.62354  -0.60266
 Alpha  occ. eigenvalues --   -0.60074  -0.59762  -0.57688  -0.57552  -0.57056
 Alpha  occ. eigenvalues --   -0.57040  -0.56778  -0.56466  -0.55777  -0.55675
 Alpha  occ. eigenvalues --   -0.55438  -0.55264  -0.55106  -0.54602  -0.54353
 Alpha  occ. eigenvalues --   -0.53964  -0.53432  -0.53196  -0.53065  -0.52852
 Alpha  occ. eigenvalues --   -0.52425  -0.52313  -0.51987  -0.51784  -0.51714
 Alpha  occ. eigenvalues --   -0.51420  -0.51209  -0.50939  -0.50748  -0.50434
 Alpha  occ. eigenvalues --   -0.50208  -0.50163  -0.49875  -0.49581  -0.49346
 Alpha  occ. eigenvalues --   -0.49002  -0.48845  -0.48600  -0.48320  -0.47550
 Alpha  occ. eigenvalues --   -0.45815  -0.45505  -0.44425  -0.44234  -0.43449
 Alpha  occ. eigenvalues --   -0.38639  -0.36467  -0.35191  -0.34908
 Alpha virt. eigenvalues --    0.04610   0.06134   0.07045   0.07837   0.09325
 Alpha virt. eigenvalues --    0.12650   0.14833   0.15658   0.16640   0.16925
 Alpha virt. eigenvalues --    0.18317   0.18481   0.18777   0.19664   0.20031

 Mulliken charges:
               1
     1  O   -0.547151
     2  C    0.851534
     3  N   -0.571533
     4  C    0.728396
     5  F   -0.282610
     6  F   -0.248030
     7  C    0.423315
     8  F   -0.274420
     9  O   -0.513050
    10  C    0.996890
    11  F   -0.240593
    12  F   -0.245473
    13  F   -0.243819
    14  C    0.821789
    15  F   -0.257642
    16  F   -0.232560
    17  F   -0.245458
    18  C    0.155329
    19  O   -0.482552
    20  C    0.187735
    21  N   -0.588175
    22  C    0.741358
    23  F   -0.283541
    24  F   -0.272262
    25  C    0.424044
    26  F   -0.242475
    27  O   -0.516651
    28  C    0.993871
    29  F   -0.242919
    30  F   -0.248509
    31  F   -0.240996
    32  C    0.812938
    33  F   -0.258123
    34  F   -0.254071
    35  F   -0.236924
    36  H    0.142694
    37  H    0.172031
    38  H    0.169340
    39  H    0.148270
 Sum of Mulliken charges =   0.00000

 Dipole moment (field-independent basis, Debye):
    X=              2.4375    Y=             -3.2520    Z=             -2.4535  Tot=              4.7473
 Quadrupole moment (field-independent basis, Debye-Ang):
   XX=           -187.2646   YY=           -186.9381   ZZ=           -183.7495
   XY=             -1.7518   XZ=             -1.2446   YZ=              4.5315

 Normal termination of Gaussian 09 at Sun Mar  3 17:59:44 2024.
