 Gaussian 09, Revision D.01,
 Gaussian 09:  ES64L-G09RevD.01 24-Apr-2013

 ----------------------------------------------------------------------
 #p CAM-B3LYP/6-31G(d,p) SCRF=(PCM,Solvent=Generic,Read) NoSymm out=wfn
 ----------------------------------------------------------------------

 ------------------
 Title A543479930_0
 ------------------
 Symbolic Z-matrix:
 Charge =  0 Multiplicity = 1

                          Input orientation:
 ---------------------------------------------------------------------
 Center     Atomic      Atomic             Coordinates (Angstroms)
 Number     Number       Type             X           Y           Z
 ---------------------------------------------------------------------
      1          6           0       -2.499646    0.509076   -3.503805
      2          6           0       -2.291266   -0.506099   -2.896543
      3          6           0       -2.031062   -1.747568   -2.147711
      4          7           0       -1.464682   -1.447536   -0.840234
      5          6           0       -2.333154   -1.209733    0.203284
      6          8           0       -3.547775   -1.382294    0.097460
      7          7           0       -1.754797   -0.760327    1.370816
      8          6           0       -2.633691   -0.324342    2.446847
      9          6           0       -2.986864    1.096393    2.284673
     10          6           0       -3.272223    2.255315    2.149615
     11          6           0       -0.394591   -0.621425    1.540144
     12          8           0        0.078918   -0.084203    2.540141
     13          7           0        0.397725   -1.104098    0.529280
     14          6           0        1.837596   -0.945573    0.676133
     15          9           0        2.189603   -1.331039    1.937285
     16          9           0        2.465267   -1.866472   -0.112931
     17          6           0        2.385531    0.473683    0.372270
     18          9           0        1.899081    1.352216    1.297214
     19          8           0        1.873464    0.930315   -0.884727
     20          6           0        2.500049    2.095221   -1.350448
     21          9           0        3.699909    1.780585   -1.864012
     22          9           0        1.739609    2.629934   -2.323809
     23          9           0        2.638920    2.997571   -0.367167
     24          6           0        3.909723    0.358977    0.514436
     25          9           0        4.291584   -0.156613    1.703175
     26          9           0        4.509660    1.571010    0.421065
     27          9           0        4.451216   -0.414032   -0.453695
     28          6           0       -0.095918   -1.327528   -0.732512
     29          8           0        0.635704   -1.404837   -1.719225
     30          1           0       -2.683556    1.409860   -4.043404
     31          1           0       -1.341721   -2.385299   -2.712810
     32          1           0       -2.962134   -2.313525   -2.031799
     33          1           0       -2.141152   -0.477209    3.413904
     34          1           0       -3.543917   -0.934395    2.455943
     35          1           0       -3.525411    3.283995    2.031150
 ---------------------------------------------------------------------

 SCF Done:  E(RCAM-B3LYP) =  -1861.99427496     A.U. after   13 cycles

 Alpha  occ. eigenvalues --  -24.83562 -24.83424 -24.83330 -24.83271 -24.82925
 Alpha  occ. eigenvalues --  -24.82671 -24.82648 -24.82643 -24.82628 -19.32939
 Alpha  occ. eigenvalues --  -19.23612 -19.23513 -19.23452 -14.52422 -14.50543
 Alpha  occ. eigenvalues --  -14.50510 -10.59503 -10.55297 -10.53139 -10.48867
 Alpha  occ. eigenvalues --  -10.45510 -10.45463 -10.44720 -10.34428 -10.34399
 Alpha  occ. eigenvalues --  -10.27546 -10.27517 -10.26761 -10.26730  -1.43151
 Alpha  occ. eigenvalues --   -1.41647  -1.38844  -1.35492  -1.33456  -1.33204
 Alpha  occ. eigenvalues --   -1.32654  -1.32043  -1.31353  -1.22333  -1.20498
 Alpha  occ. eigenvalues --   -1.17184  -1.17040  -1.09126  -1.07253  -1.06225
 Alpha  occ. eigenvalues --   -0.93460  -0.89533  -0.87386  -0.84415  -0.81943
 Alpha  occ. eigenvalues --   -0.81514  -0.81312  -0.78068  -0.76680  -0.75505
 Alpha  occ. eigenvalues --   -0.73727  -0.72943  -0.72094  -0.70391  -0.69781
 Alpha  occ. eigenvalues --   -0.68459  -0.68027  -0.67024  -0.66361  -0.64508
 Alpha  occ. eigenvalues --   -0.63572  -0.62302  -0.61986  -0.59837  -0.59049
 Alpha  occ. eigenvalues --   -0.57620  -0.57547  -0.57082  -0.56721  -0.56281
 Alpha  occ. eigenvalues --   -0.56008  -0.55619  -0.55376  -0.54836  -0.54770
 Alpha  occ. eigenvalues --   -0.54391  -0.53972  -0.53581  -0.53305  -0.52530
 Alpha  occ. eigenvalues --   -0.52173  -0.51855  -0.50843  -0.50610  -0.50481
 Alpha  occ. eigenvalues --   -0.50344  -0.50222  -0.49917  -0.49717  -0.49299
 Alpha  occ. eigenvalues --   -0.48825  -0.48444  -0.45681  -0.44484  -0.40076
 Alpha  occ. eigenvalues --   -0.39890  -0.38115  -0.37260  -0.37070  -0.35599
 Alpha  occ. eigenvalues --   -0.35090  -0.34654  -0.34183  -0.34139
 Alpha virt. eigenvalues --    0.01033   0.02001   0.05859   0.07301   0.08922
 Alpha virt. eigenvalues --    0.09712   0.09870   0.09988   0.12354   0.14308
 Alpha virt. eigenvalues --    0.15409   0.17300   0.17621   0.18264   0.18425

 Mulliken charges:
               1
     1  C   -0.417703
     2  C    0.274569
     3  C   -0.175459
     4  N   -0.566314
     5  C    0.836202
     6  O   -0.512871
     7  N   -0.565063
     8  C   -0.175528
     9  C    0.274459
    10  C   -0.417741
    11  C    0.834349
    12  O   -0.501273
    13  N   -0.640276
    14  C    0.759968
    15  F   -0.258603
    16  F   -0.255751
    17  C    0.438532
    18  F   -0.254968
    19  O   -0.505464
    20  C    0.996529
    21  F   -0.243881
    22  F   -0.239317
    23  F   -0.243291
    24  C    0.812191
    25  F   -0.244271
    26  F   -0.260024
    27  F   -0.246259
    28  C    0.849206
    29  O   -0.502851
    30  H    0.191360
    31  H    0.190632
    32  H    0.193157
    33  H    0.190948
    34  H    0.193240
    35  H    0.191565
 Sum of Mulliken charges =   0.00000

 Dipole moment (field-independent basis, Debye):
    X=             -2.4631    Y=             -0.5441    Z=             -0.1473  Tot=              2.5268
 Quadrupole moment (field-independent basis, Debye-Ang):
   XX=           -164.2815   YY=           -143.4168   ZZ=           -155.8405
   XY=             -0.6651   XZ=             -1.1743   YZ=             -4.6417

 Normal termination of Gaussian 09 at Sun Mar  3 18:07:56 2024.
