 Gaussian 09, Revision D.01,
 Gaussian 09:  ES64L-G09RevD.01 24-Apr-2013

 ----------------------------------------------------------------------
 #p CAM-B3LYP/6-31G(d,p) SCRF=(PCM,Solvent=Generic,Read) NoSymm out=wfn
 ----------------------------------------------------------------------

 -------------------
 Title A543479930_p1
 -------------------
 Symbolic Z-matrix:
 Charge =  1 Multiplicity = 2

                          Input orientation:
 ---------------------------------------------------------------------
 Center     Atomic      Atomic             Coordinates (Angstroms)
 Number     Number       Type             X           Y           Z
 ---------------------------------------------------------------------
      1          6           0       -2.499646    0.509076   -3.503805
      2          6           0       -2.291266   -0.506099   -2.896543
      3          6           0       -2.031062   -1.747568   -2.147711
      4          7           0       -1.464682   -1.447536   -0.840234
      5          6           0       -2.333154   -1.209733    0.203284
      6          8           0       -3.547775   -1.382294    0.097460
      7          7           0       -1.754797   -0.760327    1.370816
      8          6           0       -2.633691   -0.324342    2.446847
      9          6           0       -2.986864    1.096393    2.284673
     10          6           0       -3.272223    2.255315    2.149615
     11          6           0       -0.394591   -0.621425    1.540144
     12          8           0        0.078918   -0.084203    2.540141
     13          7           0        0.397725   -1.104098    0.529280
     14          6           0        1.837596   -0.945573    0.676133
     15          9           0        2.189603   -1.331039    1.937285
     16          9           0        2.465267   -1.866472   -0.112931
     17          6           0        2.385531    0.473683    0.372270
     18          9           0        1.899081    1.352216    1.297214
     19          8           0        1.873464    0.930315   -0.884727
     20          6           0        2.500049    2.095221   -1.350448
     21          9           0        3.699909    1.780585   -1.864012
     22          9           0        1.739609    2.629934   -2.323809
     23          9           0        2.638920    2.997571   -0.367167
     24          6           0        3.909723    0.358977    0.514436
     25          9           0        4.291584   -0.156613    1.703175
     26          9           0        4.509660    1.571010    0.421065
     27          9           0        4.451216   -0.414032   -0.453695
     28          6           0       -0.095918   -1.327528   -0.732512
     29          8           0        0.635704   -1.404837   -1.719225
     30          1           0       -2.683556    1.409860   -4.043404
     31          1           0       -1.341721   -2.385299   -2.712810
     32          1           0       -2.962134   -2.313525   -2.031799
     33          1           0       -2.141152   -0.477209    3.413904
     34          1           0       -3.543917   -0.934395    2.455943
     35          1           0       -3.525411    3.283995    2.031150
 ---------------------------------------------------------------------

 SCF Done:  E(UCAM-B3LYP) =  -1861.67580117     A.U. after   46 cycles

 Alpha  occ. eigenvalues --  -24.85365 -24.85346 -24.85020 -24.84929 -24.84896
 Alpha  occ. eigenvalues --  -24.84815 -24.84790 -24.84478 -24.84186 -19.35073
 Alpha  occ. eigenvalues --  -19.28035 -19.27530 -19.27434 -14.55816 -14.55310
 Alpha  occ. eigenvalues --  -14.55279 -10.61393 -10.56976 -10.55605 -10.51000
 Alpha  occ. eigenvalues --  -10.49340 -10.49291 -10.49237 -10.40607 -10.40527
 Alpha  occ. eigenvalues --  -10.38562 -10.38409 -10.37949 -10.37793  -1.44948
 Alpha  occ. eigenvalues --   -1.43280  -1.41047  -1.37616  -1.35210  -1.35037
 Alpha  occ. eigenvalues --   -1.34379  -1.33603  -1.33418  -1.26408  -1.22654
 Alpha  occ. eigenvalues --   -1.21328  -1.21094  -1.13043  -1.11397  -1.11024
 Alpha  occ. eigenvalues --   -0.97479  -0.96102  -0.95376  -0.90702  -0.88877
 Alpha  occ. eigenvalues --   -0.87172  -0.83969  -0.81852  -0.81248  -0.78174
 Alpha  occ. eigenvalues --   -0.78010  -0.75194  -0.74388  -0.72519  -0.72077
 Alpha  occ. eigenvalues --   -0.70894  -0.70174  -0.69781  -0.69586  -0.68719
 Alpha  occ. eigenvalues --   -0.68310  -0.66876  -0.66752  -0.65802  -0.64174
 Alpha  occ. eigenvalues --   -0.62820  -0.61825  -0.60704  -0.59842  -0.59251
 Alpha  occ. eigenvalues --   -0.59072  -0.58738  -0.58516  -0.57925  -0.57677
 Alpha  occ. eigenvalues --   -0.57283  -0.56695  -0.56284  -0.56005  -0.55632
 Alpha  occ. eigenvalues --   -0.55424  -0.55287  -0.54615  -0.54060  -0.53870
 Alpha  occ. eigenvalues --   -0.52994  -0.52455  -0.52130  -0.51775  -0.51585
 Alpha  occ. eigenvalues --   -0.50674  -0.50434  -0.47870  -0.46600  -0.45339
 Alpha  occ. eigenvalues --   -0.45214  -0.44903  -0.44783  -0.43286  -0.43149
 Alpha  occ. eigenvalues --   -0.41612  -0.41405  -0.41312  -0.39552
 Alpha virt. eigenvalues --   -0.03010  -0.01964   0.00043   0.00818   0.01169
 Alpha virt. eigenvalues --    0.01307   0.03705   0.06445   0.08562   0.10798
 Alpha virt. eigenvalues --    0.11431   0.12116   0.13068   0.13850   0.14534

  Beta  occ. eigenvalues --  -24.85365 -24.85346 -24.85020 -24.84929 -24.84897
  Beta  occ. eigenvalues --  -24.84815 -24.84789 -24.84478 -24.84186 -19.35073
  Beta  occ. eigenvalues --  -19.28002 -19.27492 -19.27396 -14.55819 -14.55285
  Beta  occ. eigenvalues --  -14.55252 -10.61393 -10.56976 -10.55605 -10.51000
  Beta  occ. eigenvalues --  -10.49349 -10.49300 -10.49242 -10.40590 -10.40511
  Beta  occ. eigenvalues --  -10.38293 -10.38143 -10.37539 -10.37389  -1.44948
  Beta  occ. eigenvalues --   -1.43280  -1.41048  -1.37615  -1.35210  -1.35037
  Beta  occ. eigenvalues --   -1.34379  -1.33603  -1.33418  -1.26372  -1.22651
  Beta  occ. eigenvalues --   -1.21272  -1.21034  -1.12974  -1.11353  -1.10926
  Beta  occ. eigenvalues --   -0.96731  -0.95154  -0.94757  -0.89654  -0.88157
  Beta  occ. eigenvalues --   -0.87116  -0.83966  -0.81693  -0.81195  -0.78137
  Beta  occ. eigenvalues --   -0.77958  -0.75165  -0.74374  -0.72479  -0.72051
  Beta  occ. eigenvalues --   -0.70818  -0.70167  -0.69600  -0.69114  -0.68615
  Beta  occ. eigenvalues --   -0.68261  -0.66777  -0.66690  -0.65619  -0.63906
  Beta  occ. eigenvalues --   -0.62706  -0.61813  -0.60573  -0.59484  -0.59080
  Beta  occ. eigenvalues --   -0.58935  -0.58724  -0.58163  -0.57895  -0.57553
  Beta  occ. eigenvalues --   -0.57268  -0.56673  -0.56137  -0.55510  -0.55388
  Beta  occ. eigenvalues --   -0.55384  -0.55141  -0.54465  -0.54012  -0.53845
  Beta  occ. eigenvalues --   -0.52947  -0.52437  -0.52125  -0.51765  -0.51580
  Beta  occ. eigenvalues --   -0.50667  -0.50433  -0.47860  -0.46592  -0.44820
  Beta  occ. eigenvalues --   -0.44599  -0.43055  -0.42843  -0.41556  -0.41203
  Beta  occ. eigenvalues --   -0.41029  -0.39410  -0.35735
  Beta virt. eigenvalues --   -0.29537  -0.02984  -0.01840   0.00534   0.01510
  Beta virt. eigenvalues --    0.03486   0.03577   0.03761   0.06526   0.08619
  Beta virt. eigenvalues --    0.11010   0.11586   0.12467   0.13357   0.14120

 Mulliken charges and spin densities:
               1          2
     1  C   -0.231485   0.269925
     2  C    0.369102   0.175553
     3  C   -0.194379   0.003332
     4  N   -0.571490   0.013376
     5  C    0.851878  -0.002853
     6  O   -0.494803   0.011847
     7  N   -0.570326   0.012438
     8  C   -0.194744   0.003455
     9  C    0.371214   0.178515
    10  C   -0.228569   0.274151
    11  C    0.848131  -0.005310
    12  O   -0.480821   0.014124
    13  N   -0.641259  -0.000544
    14  C    0.762532  -0.000115
    15  F   -0.253140  -0.000002
    16  F   -0.250488   0.000002
    17  C    0.438027  -0.000008
    18  F   -0.254980   0.000169
    19  O   -0.511130   0.000155
    20  C    0.997576   0.000008
    21  F   -0.240199   0.000001
    22  F   -0.240167   0.000000
    23  F   -0.241377   0.000011
    24  C    0.816422  -0.000010
    25  F   -0.241878   0.000000
    26  F   -0.257239  -0.000002
    27  F   -0.244114   0.000000
    28  C    0.862819  -0.005559
    29  O   -0.482250   0.014528
    30  H    0.264716  -0.009933
    31  H    0.243137   0.014206
    32  H    0.244454   0.016853
    33  H    0.244083   0.014591
    34  H    0.244984   0.017170
    35  H    0.265764  -0.010077
 Sum of Mulliken charges =   1.00000   1.00000

 Dipole moment (field-independent basis, Debye):
    X=            -14.2744    Y=              1.6269    Z=             -1.6485  Tot=             14.4611
 Quadrupole moment (field-independent basis, Debye-Ang):
   XX=           -123.8972   YY=           -129.1194   ZZ=           -117.5037
   XY=             -9.7821   XZ=             -0.4551   YZ=              2.6212

 Normal termination of Gaussian 09 at Sun Mar  3 18:10:03 2024.
