 Gaussian 09, Revision D.01,
 Gaussian 09:  ES64L-G09RevD.01 24-Apr-2013

 ----------------------------------------------------------------------
 #p CAM-B3LYP/6-31G(d,p) SCRF=(PCM,Solvent=Generic,Read) NoSymm out=wfn
 ----------------------------------------------------------------------

 ---------------
 Title A139311_0
 ---------------
 Symbolic Z-matrix:
 Charge =  0 Multiplicity = 1

                          Input orientation:
 ---------------------------------------------------------------------
 Center     Atomic      Atomic             Coordinates (Angstroms)
 Number     Number       Type             X           Y           Z
 ---------------------------------------------------------------------
      1          8           0        1.001114    1.690462    1.580387
      2          6           0        0.433786    0.760669    1.022249
      3          7           0       -0.762774    0.920327    0.383053
      4          6           0       -1.497381    2.182480    0.495130
      5          9           0       -2.444816    2.175662   -0.491494
      6          9           0       -2.193549    2.166954    1.667446
      7          6           0       -0.725809    3.532743    0.375972
      8          9           0       -0.161306    3.819493    1.598969
      9          8           0        0.398230    3.539687   -0.517391
     10          6           0        0.074144    3.443964   -1.878936
     11          9           0        1.213727    3.302085   -2.578776
     12          9           0       -0.560537    4.547889   -2.291611
     13          9           0       -0.687353    2.355200   -2.085309
     14          6           0       -1.777597    4.627381    0.145337
     15          9           0       -2.672476    4.694860    1.157132
     16          9           0       -1.187138    5.845819    0.055661
     17          9           0       -2.482059    4.454797   -0.992740
     18          6           0       -1.524902   -0.194636    0.118228
     19          8           0       -2.743193   -0.192641    0.230012
     20          7           0       -0.826842   -1.319422   -0.227084
     21          6           0       -1.453216   -2.486558   -0.851352
     22          9           0       -0.627048   -2.827954   -1.887961
     23          9           0       -1.389837   -3.529460    0.020958
     24          6           0       -2.892071   -2.409173   -1.439625
     25          9           0       -2.931212   -1.315314   -2.282155
     26          8           0       -4.019325   -2.216175   -0.578038
     27          6           0       -4.027634   -2.994662    0.587220
     28          9           0       -3.881650   -4.291685    0.284600
     29          9           0       -5.204434   -2.828594    1.219234
     30          9           0       -3.035937   -2.606408    1.406322
     31          6           0       -3.066186   -3.657029   -2.323707
     32          9           0       -2.276622   -3.618329   -3.426459
     33          9           0       -4.344466   -3.754110   -2.772217
     34          9           0       -2.785207   -4.811439   -1.681008
     35          6           0        0.465306   -1.502651    0.213062
     36          8           0        1.116202   -2.506497   -0.054762
     37          7           0        0.989598   -0.493324    0.986869
     38          6           0        2.307600   -0.710430    1.580260
     39          9           0        2.472673    0.093861    2.673321
     40          9           0        2.287246   -1.965164    2.141895
     41          6           0        3.569326   -0.603539    0.676687
     42          9           0        3.428979   -1.428237   -0.400755
     43          8           0        4.680784   -1.114982    1.429328
     44          6           0        5.919016   -0.931454    0.797013
     45          9           0        5.841050   -1.182607   -0.518383
     46          9           0        6.329082    0.331467    1.001631
     47          9           0        6.814224   -1.768345    1.350475
     48          6           0        3.683734    0.841004    0.184669
     49          9           0        3.851986    1.718262    1.193679
     50          9           0        4.724504    1.008202   -0.664930
     51          9           0        2.580265    1.207551   -0.515560
 ---------------------------------------------------------------------

 SCF Done:  E(RCAM-B3LYP) =  -3881.79956755     A.U. after   13 cycles

 Alpha  occ. eigenvalues --  -24.84946 -24.84805 -24.84502 -24.84275 -24.84000
 Alpha  occ. eigenvalues --  -24.83914 -24.83907 -24.83885 -24.83849 -24.83825
 Alpha  occ. eigenvalues --  -24.83802 -24.83716 -24.83645 -24.83641 -24.83627
 Alpha  occ. eigenvalues --  -24.83604 -24.83535 -24.83509 -24.83449 -24.83395
 Alpha  occ. eigenvalues --  -24.83223 -24.83093 -24.83048 -24.82937 -24.82813
 Alpha  occ. eigenvalues --  -24.82747 -24.82696 -19.33850 -19.33302 -19.33022
 Alpha  occ. eigenvalues --  -19.26467 -19.25747 -19.25411 -14.54650 -14.54402
 Alpha  occ. eigenvalues --  -14.54224 -10.60511 -10.59932 -10.59789 -10.56244
 Alpha  occ. eigenvalues --  -10.55654 -10.55419 -10.54731 -10.54389 -10.54316
 Alpha  occ. eigenvalues --  -10.50187 -10.49902 -10.49731 -10.48213 -10.48076
 Alpha  occ. eigenvalues --  -10.48014  -1.44179  -1.43577  -1.43566  -1.42444
 Alpha  occ. eigenvalues --   -1.42071  -1.41749  -1.39865  -1.39707  -1.39291
 Alpha  occ. eigenvalues --   -1.36208  -1.35849  -1.35190  -1.34943  -1.34178
 Alpha  occ. eigenvalues --   -1.34171  -1.33925  -1.33776  -1.33705  -1.33452
 Alpha  occ. eigenvalues --   -1.33030  -1.32925  -1.32851  -1.32501  -1.32326
 Alpha  occ. eigenvalues --   -1.32201  -1.31917  -1.31749  -1.25511  -1.21291
 Alpha  occ. eigenvalues --   -1.20944  -1.20793  -1.20134  -1.19837  -1.12077
 Alpha  occ. eigenvalues --   -1.10014  -1.09787  -0.94631  -0.93659  -0.93439
 Alpha  occ. eigenvalues --   -0.87887  -0.85827  -0.85453  -0.83250  -0.82956
 Alpha  occ. eigenvalues --   -0.82387  -0.80592  -0.80396  -0.78761  -0.76870
 Alpha  occ. eigenvalues --   -0.76187  -0.75760  -0.74677  -0.73731  -0.73521
 Alpha  occ. eigenvalues --   -0.72471  -0.71861  -0.71557  -0.71465  -0.71074
 Alpha  occ. eigenvalues --   -0.70927  -0.70781  -0.70349  -0.70017  -0.69861
 Alpha  occ. eigenvalues --   -0.69489  -0.69265  -0.69141  -0.68525  -0.68359
 Alpha  occ. eigenvalues --   -0.68200  -0.67789  -0.67444  -0.66997  -0.66532
 Alpha  occ. eigenvalues --   -0.66260  -0.64749  -0.64603  -0.64128  -0.63262
 Alpha  occ. eigenvalues --   -0.60714  -0.59743  -0.59653  -0.58844  -0.58432
 Alpha  occ. eigenvalues --   -0.58231  -0.58044  -0.57963  -0.57652  -0.57532
 Alpha  occ. eigenvalues --   -0.57331  -0.57236  -0.56925  -0.56561  -0.56471
 Alpha  occ. eigenvalues --   -0.56423  -0.56286  -0.56181  -0.55995  -0.55755
 Alpha  occ. eigenvalues --   -0.55715  -0.55491  -0.55132  -0.55028  -0.54710
 Alpha  occ. eigenvalues --   -0.54487  -0.54354  -0.54237  -0.54153  -0.54048
 Alpha  occ. eigenvalues --   -0.53726  -0.53678  -0.53362  -0.53346  -0.53238
 Alpha  occ. eigenvalues --   -0.52723  -0.52497  -0.52386  -0.52119  -0.51961
 Alpha  occ. eigenvalues --   -0.51761  -0.51301  -0.51199  -0.51099  -0.50984
 Alpha  occ. eigenvalues --   -0.50875  -0.50817  -0.50633  -0.50479  -0.50432
 Alpha  occ. eigenvalues --   -0.50068  -0.49886  -0.49588  -0.49550  -0.49498
 Alpha  occ. eigenvalues --   -0.49245  -0.49129  -0.48830  -0.48712  -0.48554
 Alpha  occ. eigenvalues --   -0.48424  -0.46471  -0.44999  -0.44106  -0.43587
 Alpha  occ. eigenvalues --   -0.42208  -0.41472  -0.40796  -0.39837  -0.39725
 Alpha  occ. eigenvalues --   -0.37462
 Alpha virt. eigenvalues --   -0.02219  -0.00832   0.03597   0.04792   0.05718
 Alpha virt. eigenvalues --    0.06345   0.06501   0.07491   0.08985   0.13416
 Alpha virt. eigenvalues --    0.14406   0.15382   0.17149   0.17164   0.17554

 Mulliken charges:
               1
     1  O   -0.487092
     2  C    0.864299
     3  N   -0.653156
     4  C    0.796874
     5  F   -0.271760
     6  F   -0.252064
     7  C    0.430756
     8  F   -0.265373
     9  O   -0.497316
    10  C    0.974283
    11  F   -0.235304
    12  F   -0.228883
    13  F   -0.245776
    14  C    0.811946
    15  F   -0.243267
    16  F   -0.254858
    17  F   -0.245036
    18  C    0.838547
    19  O   -0.453161
    20  N   -0.668680
    21  C    0.800191
    22  F   -0.263501
    23  F   -0.255659
    24  C    0.421053
    25  F   -0.277873
    26  O   -0.484324
    27  C    0.991793
    28  F   -0.240310
    29  F   -0.236544
    30  F   -0.247816
    31  C    0.808896
    32  F   -0.247237
    33  F   -0.251437
    34  F   -0.238512
    35  C    0.874460
    36  O   -0.469005
    37  N   -0.673898
    38  C    0.748432
    39  F   -0.241998
    40  F   -0.262532
    41  C    0.439343
    42  F   -0.252712
    43  O   -0.510905
    44  C    0.997865
    45  F   -0.242328
    46  F   -0.244861
    47  F   -0.236542
    48  C    0.817992
    49  F   -0.232625
    50  F   -0.250785
    51  F   -0.253602
 Sum of Mulliken charges =   0.00000

 Dipole moment (field-independent basis, Debye):
    X=              0.1489    Y=              0.4833    Z=             -0.6862  Tot=              0.8525
 Quadrupole moment (field-independent basis, Debye-Ang):
   XX=           -274.4702   YY=           -277.8445   ZZ=           -267.5530
   XY=              2.6574   XZ=             -3.6880   YZ=             -7.1020

 Normal termination of Gaussian 09 at Sun Mar  3 17:18:26 2024.
