 Gaussian 09, Revision D.01,
 Gaussian 09:  ES64L-G09RevD.01 24-Apr-2013

 ----------------------------------------------------------------------
 #p CAM-B3LYP/6-31G(d,p) SCRF=(PCM,Solvent=Generic,Read) NoSymm out=wfn
 ----------------------------------------------------------------------

 ----------------
 Title A139311_p1
 ----------------
 Symbolic Z-matrix:
 Charge =  1 Multiplicity = 2

                          Input orientation:
 ---------------------------------------------------------------------
 Center     Atomic      Atomic             Coordinates (Angstroms)
 Number     Number       Type             X           Y           Z
 ---------------------------------------------------------------------
      1          8           0        1.001114    1.690462    1.580387
      2          6           0        0.433786    0.760669    1.022249
      3          7           0       -0.762774    0.920327    0.383053
      4          6           0       -1.497381    2.182480    0.495130
      5          9           0       -2.444816    2.175662   -0.491494
      6          9           0       -2.193549    2.166954    1.667446
      7          6           0       -0.725809    3.532743    0.375972
      8          9           0       -0.161306    3.819493    1.598969
      9          8           0        0.398230    3.539687   -0.517391
     10          6           0        0.074144    3.443964   -1.878936
     11          9           0        1.213727    3.302085   -2.578776
     12          9           0       -0.560537    4.547889   -2.291611
     13          9           0       -0.687353    2.355200   -2.085309
     14          6           0       -1.777597    4.627381    0.145337
     15          9           0       -2.672476    4.694860    1.157132
     16          9           0       -1.187138    5.845819    0.055661
     17          9           0       -2.482059    4.454797   -0.992740
     18          6           0       -1.524902   -0.194636    0.118228
     19          8           0       -2.743193   -0.192641    0.230012
     20          7           0       -0.826842   -1.319422   -0.227084
     21          6           0       -1.453216   -2.486558   -0.851352
     22          9           0       -0.627048   -2.827954   -1.887961
     23          9           0       -1.389837   -3.529460    0.020958
     24          6           0       -2.892071   -2.409173   -1.439625
     25          9           0       -2.931212   -1.315314   -2.282155
     26          8           0       -4.019325   -2.216175   -0.578038
     27          6           0       -4.027634   -2.994662    0.587220
     28          9           0       -3.881650   -4.291685    0.284600
     29          9           0       -5.204434   -2.828594    1.219234
     30          9           0       -3.035937   -2.606408    1.406322
     31          6           0       -3.066186   -3.657029   -2.323707
     32          9           0       -2.276622   -3.618329   -3.426459
     33          9           0       -4.344466   -3.754110   -2.772217
     34          9           0       -2.785207   -4.811439   -1.681008
     35          6           0        0.465306   -1.502651    0.213062
     36          8           0        1.116202   -2.506497   -0.054762
     37          7           0        0.989598   -0.493324    0.986869
     38          6           0        2.307600   -0.710430    1.580260
     39          9           0        2.472673    0.093861    2.673321
     40          9           0        2.287246   -1.965164    2.141895
     41          6           0        3.569326   -0.603539    0.676687
     42          9           0        3.428979   -1.428237   -0.400755
     43          8           0        4.680784   -1.114982    1.429328
     44          6           0        5.919016   -0.931454    0.797013
     45          9           0        5.841050   -1.182607   -0.518383
     46          9           0        6.329082    0.331467    1.001631
     47          9           0        6.814224   -1.768345    1.350475
     48          6           0        3.683734    0.841004    0.184669
     49          9           0        3.851986    1.718262    1.193679
     50          9           0        4.724504    1.008202   -0.664930
     51          9           0        2.580265    1.207551   -0.515560
 ---------------------------------------------------------------------

 SCF Done:  E(UCAM-B3LYP) =  -3881.44500531     A.U. after   43 cycles

 Alpha  occ. eigenvalues --  -24.89535 -24.89121 -24.89119 -24.88995 -24.88857
 Alpha  occ. eigenvalues --  -24.88839 -24.88442 -24.88236 -24.87865 -24.87655
 Alpha  occ. eigenvalues --  -24.87650 -24.87551 -24.87399 -24.87156 -24.86992
 Alpha  occ. eigenvalues --  -24.86949 -24.86595 -24.86530 -24.86323 -24.86118
 Alpha  occ. eigenvalues --  -24.85947 -24.85871 -24.85730 -24.85642 -24.85585
 Alpha  occ. eigenvalues --  -24.85544 -24.85509 -19.39744 -19.39411 -19.38956
 Alpha  occ. eigenvalues --  -19.37825 -19.37576 -19.36469 -14.63956 -14.63586
 Alpha  occ. eigenvalues --  -14.63395 -10.63619 -10.63318 -10.62172 -10.60437
 Alpha  occ. eigenvalues --  -10.60252 -10.60020 -10.59850 -10.58745 -10.58489
 Alpha  occ. eigenvalues --  -10.58122 -10.57982 -10.57718 -10.54484 -10.54285
 Alpha  occ. eigenvalues --  -10.53994  -1.47198  -1.46987  -1.46684  -1.45609
 Alpha  occ. eigenvalues --   -1.45541  -1.45203  -1.44943  -1.44210  -1.43981
 Alpha  occ. eigenvalues --   -1.40356  -1.39880  -1.39833  -1.38341  -1.38194
 Alpha  occ. eigenvalues --   -1.37663  -1.37649  -1.37456  -1.37453  -1.36798
 Alpha  occ. eigenvalues --   -1.36400  -1.36361  -1.35905  -1.35409  -1.35375
 Alpha  occ. eigenvalues --   -1.35224  -1.35051  -1.34998  -1.34645  -1.31680
 Alpha  occ. eigenvalues --   -1.31188  -1.25187  -1.25105  -1.23952  -1.23138
 Alpha  occ. eigenvalues --   -1.19154  -1.19003  -0.99821  -0.98350  -0.98105
 Alpha  occ. eigenvalues --   -0.93858  -0.93752  -0.93145  -0.87452  -0.87041
 Alpha  occ. eigenvalues --   -0.86822  -0.86300  -0.85705  -0.85235  -0.81488
 Alpha  occ. eigenvalues --   -0.80377  -0.79964  -0.78733  -0.77802  -0.77555
 Alpha  occ. eigenvalues --   -0.76684  -0.76016  -0.75379  -0.75302  -0.75126
 Alpha  occ. eigenvalues --   -0.74819  -0.74644  -0.74401  -0.73961  -0.73704
 Alpha  occ. eigenvalues --   -0.73553  -0.73214  -0.72920  -0.72394  -0.72224
 Alpha  occ. eigenvalues --   -0.71723  -0.71430  -0.71288  -0.71017  -0.70586
 Alpha  occ. eigenvalues --   -0.70276  -0.70088  -0.69736  -0.69136  -0.68360
 Alpha  occ. eigenvalues --   -0.68265  -0.66612  -0.66424  -0.65570  -0.64786
 Alpha  occ. eigenvalues --   -0.64060  -0.63483  -0.63246  -0.62153  -0.61840
 Alpha  occ. eigenvalues --   -0.61541  -0.61204  -0.61112  -0.60868  -0.60653
 Alpha  occ. eigenvalues --   -0.60533  -0.60376  -0.60269  -0.60051  -0.59953
 Alpha  occ. eigenvalues --   -0.59657  -0.59503  -0.59274  -0.59017  -0.58890
 Alpha  occ. eigenvalues --   -0.58707  -0.58605  -0.58225  -0.58173  -0.58009
 Alpha  occ. eigenvalues --   -0.57756  -0.57595  -0.57222  -0.57035  -0.56719
 Alpha  occ. eigenvalues --   -0.56574  -0.56470  -0.56446  -0.55735  -0.55694
 Alpha  occ. eigenvalues --   -0.55402  -0.55137  -0.54884  -0.54803  -0.54471
 Alpha  occ. eigenvalues --   -0.54447  -0.54337  -0.54099  -0.54072  -0.53839
 Alpha  occ. eigenvalues --   -0.53764  -0.53595  -0.53553  -0.53316  -0.53158
 Alpha  occ. eigenvalues --   -0.53079  -0.52787  -0.52381  -0.52135  -0.52031
 Alpha  occ. eigenvalues --   -0.51844  -0.51731  -0.51470  -0.51259  -0.51026
 Alpha  occ. eigenvalues --   -0.50471  -0.49866  -0.49251  -0.47884  -0.47558
 Alpha  occ. eigenvalues --   -0.47012
 Alpha virt. eigenvalues --   -0.11417  -0.10333  -0.03407  -0.00794   0.00592
 Alpha virt. eigenvalues --    0.01007   0.01640   0.02685   0.03731   0.07178
 Alpha virt. eigenvalues --    0.09205   0.09727   0.11563   0.12242   0.12611

  Beta  occ. eigenvalues --  -24.89477 -24.89109 -24.89092 -24.88977 -24.88857
  Beta  occ. eigenvalues --  -24.88828 -24.88405 -24.88235 -24.87859 -24.87648
  Beta  occ. eigenvalues --  -24.87636 -24.87486 -24.87398 -24.87154 -24.86989
  Beta  occ. eigenvalues --  -24.86949 -24.86595 -24.86530 -24.86323 -24.86117
  Beta  occ. eigenvalues --  -24.85945 -24.85867 -24.85730 -24.85641 -24.85585
  Beta  occ. eigenvalues --  -24.85541 -24.85508 -19.38782 -19.38535 -19.38232
  Beta  occ. eigenvalues --  -19.37805 -19.37491 -19.36469 -14.63882 -14.63490
  Beta  occ. eigenvalues --  -14.63315 -10.63619 -10.63321 -10.62172 -10.60442
  Beta  occ. eigenvalues --  -10.60257 -10.60023 -10.59849 -10.58742 -10.58486
  Beta  occ. eigenvalues --  -10.58225 -10.58072 -10.57790 -10.54483 -10.54284
  Beta  occ. eigenvalues --  -10.53995  -1.47192  -1.46971  -1.46674  -1.45578
  Beta  occ. eigenvalues --   -1.45516  -1.45202  -1.44858  -1.44195  -1.43970
  Beta  occ. eigenvalues --   -1.40317  -1.39861  -1.39716  -1.38302  -1.38173
  Beta  occ. eigenvalues --   -1.37645  -1.37629  -1.37448  -1.37349  -1.36795
  Beta  occ. eigenvalues --   -1.36396  -1.36353  -1.35904  -1.35376  -1.35236
  Beta  occ. eigenvalues --   -1.35048  -1.35012  -1.34761  -1.34609  -1.30272
  Beta  occ. eigenvalues --   -1.29940  -1.25136  -1.24947  -1.23948  -1.21862
  Beta  occ. eigenvalues --   -1.18686  -1.18465  -0.99795  -0.98286  -0.98023
  Beta  occ. eigenvalues --   -0.93685  -0.93368  -0.92781  -0.87333  -0.86803
  Beta  occ. eigenvalues --   -0.86354  -0.86150  -0.85592  -0.85086  -0.81399
  Beta  occ. eigenvalues --   -0.80328  -0.79896  -0.78706  -0.77764  -0.77509
  Beta  occ. eigenvalues --   -0.76650  -0.75981  -0.75334  -0.75263  -0.75069
  Beta  occ. eigenvalues --   -0.74798  -0.74571  -0.74331  -0.73930  -0.73646
  Beta  occ. eigenvalues --   -0.73486  -0.73167  -0.72889  -0.72379  -0.72202
  Beta  occ. eigenvalues --   -0.71701  -0.71410  -0.71250  -0.70985  -0.70541
  Beta  occ. eigenvalues --   -0.70248  -0.70015  -0.69665  -0.68428  -0.68243
  Beta  occ. eigenvalues --   -0.68007  -0.65828  -0.65494  -0.65272  -0.64498
  Beta  occ. eigenvalues --   -0.63976  -0.63328  -0.63206  -0.61881  -0.61613
  Beta  occ. eigenvalues --   -0.61213  -0.61098  -0.60915  -0.60758  -0.60578
  Beta  occ. eigenvalues --   -0.60267  -0.60221  -0.60201  -0.59979  -0.59848
  Beta  occ. eigenvalues --   -0.59574  -0.59255  -0.59179  -0.58854  -0.58824
  Beta  occ. eigenvalues --   -0.58494  -0.58485  -0.58137  -0.58081  -0.57899
  Beta  occ. eigenvalues --   -0.57707  -0.57502  -0.57152  -0.56867  -0.56531
  Beta  occ. eigenvalues --   -0.56521  -0.56426  -0.56147  -0.55623  -0.55603
  Beta  occ. eigenvalues --   -0.55282  -0.55087  -0.54795  -0.54735  -0.54424
  Beta  occ. eigenvalues --   -0.54287  -0.54050  -0.53995  -0.53812  -0.53623
  Beta  occ. eigenvalues --   -0.53537  -0.53339  -0.53196  -0.53113  -0.53022
  Beta  occ. eigenvalues --   -0.52718  -0.52263  -0.52116  -0.52028  -0.51725
  Beta  occ. eigenvalues --   -0.51719  -0.51029  -0.50157  -0.49984  -0.49150
  Beta  occ. eigenvalues --   -0.47972  -0.47905  -0.47568  -0.45163  -0.44967
  Beta virt. eigenvalues --   -0.33418  -0.11171  -0.10035  -0.03302  -0.00751
  Beta virt. eigenvalues --    0.00628   0.01076   0.01676   0.02717   0.03800
  Beta virt. eigenvalues --    0.07278   0.09260   0.09827   0.11671   0.12315

 Mulliken charges and spin densities:
               1          2
     1  O   -0.330606   0.359003
     2  C    0.948235  -0.060443
     3  N   -0.652947   0.035126
     4  C    0.793507  -0.002030
     5  F   -0.253037   0.004722
     6  F   -0.229344   0.003100
     7  C    0.418589  -0.000406
     8  F   -0.251190   0.015970
     9  O   -0.492590   0.006373
    10  C    0.981688  -0.000169
    11  F   -0.227425   0.000047
    12  F   -0.220007   0.000512
    13  F   -0.247576   0.000168
    14  C    0.824663   0.000559
    15  F   -0.236168   0.000114
    16  F   -0.244638   0.000081
    17  F   -0.238784   0.000870
    18  C    0.913645  -0.045533
    19  O   -0.321441   0.269541
    20  N   -0.669032   0.043102
    21  C    0.798924  -0.002818
    22  F   -0.244037   0.006778
    23  F   -0.234704   0.003329
    24  C    0.411403  -0.000555
    25  F   -0.266099   0.001774
    26  O   -0.472769   0.026911
    27  C    0.999573  -0.001589
    28  F   -0.231186   0.000974
    29  F   -0.225643   0.000091
    30  F   -0.250521   0.000559
    31  C    0.821194   0.000629
    32  F   -0.240258   0.000781
    33  F   -0.241403   0.000114
    34  F   -0.232463   0.000325
    35  C    0.958673  -0.054170
    36  O   -0.314932   0.327134
    37  N   -0.673524   0.034353
    38  C    0.737292  -0.004402
    39  F   -0.221265   0.014124
    40  F   -0.239652   0.009582
    41  C    0.450717   0.000061
    42  F   -0.245943   0.004484
    43  O   -0.501991   0.000222
    44  C    1.004413  -0.000019
    45  F   -0.239140   0.000074
    46  F   -0.240372   0.000020
    47  F   -0.229998  -0.000004
    48  C    0.820030   0.000014
    49  F   -0.226027   0.000366
    50  F   -0.238893   0.000087
    51  F   -0.256942   0.000064
 Sum of Mulliken charges =   1.00000   1.00000

 Dipole moment (field-independent basis, Debye):
    X=             -0.5580    Y=             -0.7835    Z=              1.2509  Tot=              1.5779
 Quadrupole moment (field-independent basis, Debye-Ang):
   XX=           -247.1296   YY=           -251.0652   ZZ=           -257.2861
   XY=              3.8307   XZ=              0.7681   YZ=             -3.3299

 Normal termination of Gaussian 09 at Sun Mar  3 17:24:30 2024.
