 Gaussian 09, Revision D.01,
 Gaussian 09:  ES64L-G09RevD.01 24-Apr-2013

 ----------------------------------------------------------------------
 #p CAM-B3LYP/6-31G(d,p) SCRF=(PCM,Solvent=Generic,Read) NoSymm out=wfn
 ----------------------------------------------------------------------

 -------------------
 Title A902432812_p1
 -------------------
 Symbolic Z-matrix:
 Charge =  1 Multiplicity = 2

                          Input orientation:
 ---------------------------------------------------------------------
 Center     Atomic      Atomic             Coordinates (Angstroms)
 Number     Number       Type             X           Y           Z
 ---------------------------------------------------------------------
      1          8           0       -0.773066   -0.923648    0.865047
      2          6           0       -0.443690    0.018883    0.152865
      3          7           0        0.846544    0.202746   -0.283274
      4          6           0        1.865299   -0.656018    0.323772
      5          9           0        1.816811   -0.463492    1.672727
      6          9           0        1.492640   -1.943976    0.096195
      7          6           0        3.340388   -0.486758   -0.123146
      8          9           0        3.406082   -0.603620   -1.483456
      9          8           0        3.763735    0.852586    0.192635
     10          6           0        5.142791    1.051798    0.009632
     11          9           0        5.364547    2.377141   -0.066792
     12          9           0        5.571409    0.475839   -1.122369
     13          9           0        5.805144    0.563868    1.068926
     14          6           0        4.124471   -1.627107    0.549802
     15          9           0        4.133779   -1.502809    1.895843
     16          9           0        5.421863   -1.629009    0.153531
     17          9           0        3.648885   -2.854462    0.252983
     18          6           0        1.212255    1.445174   -0.890420
     19          8           0        0.164831    1.852848   -1.742966
     20          6           0       -0.997437    2.114209   -0.990507
     21          7           0       -1.360377    0.945481   -0.253780
     22          6           0       -2.737064    0.852006    0.209664
     23          9           0       -2.748721    0.749877    1.559928
     24          9           0       -3.317152    2.069003   -0.028700
     25          6           0       -3.593132   -0.243102   -0.481474
     26          9           0       -3.583352    0.056706   -1.834363
     27          8           0       -3.065326   -1.571163   -0.453454
     28          6           0       -3.357899   -2.287281    0.722125
     29          9           0       -3.208229   -1.529306    1.815278
     30          9           0       -4.632014   -2.716426    0.661748
     31          9           0       -2.554097   -3.361895    0.800729
     32          6           0       -5.040190   -0.059441   -0.003912
     33          9           0       -5.530206    1.167008   -0.300628
     34          9           0       -5.863728   -0.951585   -0.609515
     35          9           0       -5.186148   -0.229290    1.326515
     36          1           0        2.084423    1.320215   -1.532962
     37          1           0        1.420494    2.200567   -0.123751
     38          1           0       -0.843812    2.955167   -0.304481
     39          1           0       -1.790752    2.369270   -1.699994
 ---------------------------------------------------------------------

 SCF Done:  E(UCAM-B3LYP) =  -2628.03796056     A.U. after   37 cycles

 Alpha  occ. eigenvalues --  -24.90113 -24.89510 -24.87867 -24.87113 -24.86939
 Alpha  occ. eigenvalues --  -24.86599 -24.86536 -24.86471 -24.86440 -24.86370
 Alpha  occ. eigenvalues --  -24.86255 -24.85976 -24.85864 -24.85796 -24.85739
 Alpha  occ. eigenvalues --  -24.85683 -24.85664 -24.85144 -19.38368 -19.37956
 Alpha  occ. eigenvalues --  -19.36629 -19.34993 -14.65872 -14.56465 -10.62948
 Alpha  occ. eigenvalues --  -10.62287 -10.60249 -10.59105 -10.58307 -10.56990
 Alpha  occ. eigenvalues --  -10.54661 -10.54577 -10.52928 -10.46941 -10.43678
 Alpha  occ. eigenvalues --   -1.46882  -1.45922  -1.45807  -1.44645  -1.44326
 Alpha  occ. eigenvalues --   -1.42532  -1.39930  -1.39444  -1.38769  -1.36863
 Alpha  occ. eigenvalues --   -1.36121  -1.36105  -1.36070  -1.35690  -1.35644
 Alpha  occ. eigenvalues --   -1.35095  -1.34861  -1.34475  -1.32116  -1.26848
 Alpha  occ. eigenvalues --   -1.25211  -1.23965  -1.19591  -1.14469  -0.98916
 Alpha  occ. eigenvalues --   -0.97200  -0.93973  -0.92679  -0.87722  -0.86323
 Alpha  occ. eigenvalues --   -0.86188  -0.84287  -0.81322  -0.79154  -0.78184
 Alpha  occ. eigenvalues --   -0.77588  -0.76976  -0.76203  -0.75494  -0.74437
 Alpha  occ. eigenvalues --   -0.74325  -0.74012  -0.73366  -0.72735  -0.72355
 Alpha  occ. eigenvalues --   -0.71968  -0.71403  -0.71181  -0.71067  -0.70550
 Alpha  occ. eigenvalues --   -0.70042  -0.69587  -0.69090  -0.68588  -0.68139
 Alpha  occ. eigenvalues --   -0.65798  -0.65474  -0.64531  -0.63719  -0.62889
 Alpha  occ. eigenvalues --   -0.61883  -0.61314  -0.60806  -0.60687  -0.60218
 Alpha  occ. eigenvalues --   -0.60104  -0.59706  -0.59422  -0.59050  -0.58868
 Alpha  occ. eigenvalues --   -0.58188  -0.57932  -0.57900  -0.57770  -0.57500
 Alpha  occ. eigenvalues --   -0.57342  -0.56445  -0.56325  -0.56238  -0.56064
 Alpha  occ. eigenvalues --   -0.55414  -0.55308  -0.54755  -0.54578  -0.54561
 Alpha  occ. eigenvalues --   -0.54251  -0.53964  -0.53802  -0.53406  -0.53064
 Alpha  occ. eigenvalues --   -0.52988  -0.52891  -0.52601  -0.52217  -0.52124
 Alpha  occ. eigenvalues --   -0.52078  -0.51256  -0.50312  -0.50147  -0.48919
 Alpha  occ. eigenvalues --   -0.47609  -0.47075  -0.45925  -0.44253
 Alpha virt. eigenvalues --   -0.06228  -0.00413   0.02437   0.03456   0.03818
 Alpha virt. eigenvalues --    0.06067   0.08554   0.10331   0.11563   0.11741
 Alpha virt. eigenvalues --    0.12605   0.13359   0.13537   0.14326   0.15209

  Beta  occ. eigenvalues --  -24.90112 -24.89457 -24.87870 -24.87113 -24.86939
  Beta  occ. eigenvalues --  -24.86599 -24.86536 -24.86471 -24.86444 -24.86369
  Beta  occ. eigenvalues --  -24.86255 -24.85974 -24.85864 -24.85796 -24.85730
  Beta  occ. eigenvalues --  -24.85683 -24.85664 -24.85144 -19.37903 -19.37062
  Beta  occ. eigenvalues --  -19.36629 -19.34912 -14.64725 -14.56567 -10.62949
  Beta  occ. eigenvalues --  -10.62287 -10.60295 -10.59089 -10.58306 -10.56988
  Beta  occ. eigenvalues --  -10.54934 -10.54538 -10.52928 -10.46948 -10.43673
  Beta  occ. eigenvalues --   -1.46827  -1.45877  -1.45808  -1.44623  -1.44326
  Beta  occ. eigenvalues --   -1.42531  -1.39912  -1.39444  -1.38709  -1.36858
  Beta  occ. eigenvalues --   -1.36123  -1.36107  -1.36067  -1.35686  -1.35644
  Beta  occ. eigenvalues --   -1.35079  -1.34863  -1.34474  -1.30484  -1.25809
  Beta  occ. eigenvalues --   -1.25074  -1.23964  -1.17447  -1.14294  -0.98727
  Beta  occ. eigenvalues --   -0.97155  -0.93586  -0.92451  -0.87467  -0.86271
  Beta  occ. eigenvalues --   -0.86120  -0.84228  -0.81092  -0.79090  -0.78125
  Beta  occ. eigenvalues --   -0.77031  -0.76700  -0.76032  -0.75370  -0.74379
  Beta  occ. eigenvalues --   -0.74069  -0.73853  -0.73043  -0.72627  -0.72286
  Beta  occ. eigenvalues --   -0.71826  -0.71362  -0.71078  -0.70890  -0.70449
  Beta  occ. eigenvalues --   -0.69658  -0.69345  -0.68741  -0.68542  -0.67730
  Beta  occ. eigenvalues --   -0.65030  -0.63926  -0.63563  -0.63061  -0.62644
  Beta  occ. eigenvalues --   -0.61531  -0.61225  -0.60642  -0.60456  -0.60157
  Beta  occ. eigenvalues --   -0.60060  -0.59634  -0.59355  -0.58894  -0.58774
  Beta  occ. eigenvalues --   -0.58129  -0.57883  -0.57817  -0.57748  -0.57392
  Beta  occ. eigenvalues --   -0.57089  -0.56372  -0.56206  -0.56098  -0.55540
  Beta  occ. eigenvalues --   -0.55316  -0.55142  -0.54729  -0.54574  -0.54376
  Beta  occ. eigenvalues --   -0.54112  -0.53722  -0.53378  -0.53014  -0.52963
  Beta  occ. eigenvalues --   -0.52919  -0.52605  -0.52222  -0.52105  -0.52057
  Beta  occ. eigenvalues --   -0.51297  -0.51017  -0.49719  -0.48669  -0.47505
  Beta  occ. eigenvalues --   -0.46655  -0.45593  -0.42727
  Beta virt. eigenvalues --   -0.28411  -0.04153  -0.00315   0.02849   0.03539
  Beta virt. eigenvalues --    0.03966   0.06213   0.08627   0.10542   0.11725
  Beta virt. eigenvalues --    0.12016   0.13033   0.13497   0.13623   0.14408

 Mulliken charges and spin densities:
               1          2
     1  O   -0.319837   0.507749
     2  C    0.928960  -0.157340
     3  N   -0.594219  -0.032142
     4  C    0.802132  -0.002682
     5  F   -0.253108  -0.000819
     6  F   -0.255430   0.000055
     7  C    0.377393   0.000357
     8  F   -0.256383  -0.000086
     9  O   -0.520689  -0.000012
    10  C    1.006684  -0.000036
    11  F   -0.235284   0.000000
    12  F   -0.236619   0.000002
    13  F   -0.235771  -0.000007
    14  C    0.828501   0.000048
    15  F   -0.238633   0.000002
    16  F   -0.251362   0.000011
    17  F   -0.235609   0.000028
    18  C    0.153798  -0.001530
    19  O   -0.449953   0.029837
    20  C    0.145822  -0.014759
    21  N   -0.463467   0.531299
    22  C    0.746113  -0.026828
    23  F   -0.212091   0.013996
    24  F   -0.243823   0.000411
    25  C    0.443102   0.013551
    26  F   -0.263055  -0.000435
    27  O   -0.494669   0.016693
    28  C    1.020057  -0.001758
    29  F   -0.241316   0.000097
    30  F   -0.239684   0.000496
    31  F   -0.232755   0.000080
    32  C    0.820500   0.005403
    33  F   -0.239015   0.000461
    34  F   -0.245004   0.002361
    35  F   -0.237620   0.000155
    36  H    0.206428   0.001437
    37  H    0.199364   0.005758
    38  H    0.263930   0.072757
    39  H    0.252613   0.035389
 Sum of Mulliken charges =   1.00000   1.00000

 Dipole moment (field-independent basis, Debye):
    X=             -2.1217    Y=              6.9457    Z=             -1.8794  Tot=              7.5018
 Quadrupole moment (field-independent basis, Debye-Ang):
   XX=           -160.2630   YY=           -165.3583   ZZ=           -180.9973
   XY=             -2.1688   XZ=             -0.0521   YZ=             -2.9506

 Normal termination of Gaussian 09 at Sun Mar  3 18:01:54 2024.
