 Gaussian 09, Revision D.01,
 Gaussian 09:  ES64L-G09RevD.01 24-Apr-2013

 ----------------------------------------------------------------------
 #p CAM-B3LYP/6-31G(d,p) SCRF=(PCM,Solvent=Generic,Read) NoSymm out=wfn
 ----------------------------------------------------------------------

 ------------------
 Title A902432812_0
 ------------------
 Symbolic Z-matrix:
 Charge =  0 Multiplicity = 1

                          Input orientation:
 ---------------------------------------------------------------------
 Center     Atomic      Atomic             Coordinates (Angstroms)
 Number     Number       Type             X           Y           Z
 ---------------------------------------------------------------------
      1          8           0       -0.773066   -0.923648    0.865047
      2          6           0       -0.443690    0.018883    0.152865
      3          7           0        0.846544    0.202746   -0.283274
      4          6           0        1.865299   -0.656018    0.323772
      5          9           0        1.816811   -0.463492    1.672727
      6          9           0        1.492640   -1.943976    0.096195
      7          6           0        3.340388   -0.486758   -0.123146
      8          9           0        3.406082   -0.603620   -1.483456
      9          8           0        3.763735    0.852586    0.192635
     10          6           0        5.142791    1.051798    0.009632
     11          9           0        5.364547    2.377141   -0.066792
     12          9           0        5.571409    0.475839   -1.122369
     13          9           0        5.805144    0.563868    1.068926
     14          6           0        4.124471   -1.627107    0.549802
     15          9           0        4.133779   -1.502809    1.895843
     16          9           0        5.421863   -1.629009    0.153531
     17          9           0        3.648885   -2.854462    0.252983
     18          6           0        1.212255    1.445174   -0.890420
     19          8           0        0.164831    1.852848   -1.742966
     20          6           0       -0.997437    2.114209   -0.990507
     21          7           0       -1.360377    0.945481   -0.253780
     22          6           0       -2.737064    0.852006    0.209664
     23          9           0       -2.748721    0.749877    1.559928
     24          9           0       -3.317152    2.069003   -0.028700
     25          6           0       -3.593132   -0.243102   -0.481474
     26          9           0       -3.583352    0.056706   -1.834363
     27          8           0       -3.065326   -1.571163   -0.453454
     28          6           0       -3.357899   -2.287281    0.722125
     29          9           0       -3.208229   -1.529306    1.815278
     30          9           0       -4.632014   -2.716426    0.661748
     31          9           0       -2.554097   -3.361895    0.800729
     32          6           0       -5.040190   -0.059441   -0.003912
     33          9           0       -5.530206    1.167008   -0.300628
     34          9           0       -5.863728   -0.951585   -0.609515
     35          9           0       -5.186148   -0.229290    1.326515
     36          1           0        2.084423    1.320215   -1.532962
     37          1           0        1.420494    2.200567   -0.123751
     38          1           0       -0.843812    2.955167   -0.304481
     39          1           0       -1.790752    2.369270   -1.699994
 ---------------------------------------------------------------------

 SCF Done:  E(RCAM-B3LYP) =  -2628.35364105     A.U. after   13 cycles

 Alpha  occ. eigenvalues --  -24.84262 -24.83915 -24.83861 -24.83831 -24.83379
 Alpha  occ. eigenvalues --  -24.83327 -24.83109 -24.83042 -24.82976 -24.82850
 Alpha  occ. eigenvalues --  -24.82736 -24.82695 -24.82694 -24.82535 -24.82247
 Alpha  occ. eigenvalues --  -24.81610 -24.81523 -24.81456 -19.33775 -19.32317
 Alpha  occ. eigenvalues --  -19.27070 -19.20724 -14.48067 -14.48032 -10.60096
 Alpha  occ. eigenvalues --  -10.58776 -10.55790 -10.54882 -10.51695 -10.51669
 Alpha  occ. eigenvalues --  -10.49468 -10.48380 -10.43003 -10.37365 -10.37339
 Alpha  occ. eigenvalues --   -1.43724  -1.42514  -1.41932  -1.41270  -1.38651
 Alpha  occ. eigenvalues --   -1.37836  -1.36248  -1.34663  -1.34125  -1.33714
 Alpha  occ. eigenvalues --   -1.33054  -1.32928  -1.32541  -1.32329  -1.32122
 Alpha  occ. eigenvalues --   -1.31751  -1.31179  -1.30769  -1.21147  -1.20047
 Alpha  occ. eigenvalues --   -1.19698  -1.15207  -1.06227  -1.05258  -0.93417
 Alpha  occ. eigenvalues --   -0.92260  -0.85227  -0.84576  -0.82498  -0.81685
 Alpha  occ. eigenvalues --   -0.79760  -0.79076  -0.76373  -0.75057  -0.73385
 Alpha  occ. eigenvalues --   -0.73224  -0.71700  -0.71069  -0.70888  -0.70393
 Alpha  occ. eigenvalues --   -0.70173  -0.68978  -0.68763  -0.68644  -0.68252
 Alpha  occ. eigenvalues --   -0.67812  -0.67402  -0.66945  -0.66326  -0.65330
 Alpha  occ. eigenvalues --   -0.64147  -0.63967  -0.63179  -0.62444  -0.60678
 Alpha  occ. eigenvalues --   -0.60215  -0.58858  -0.57798  -0.57433  -0.57254
 Alpha  occ. eigenvalues --   -0.57024  -0.56542  -0.56490  -0.56408  -0.55782
 Alpha  occ. eigenvalues --   -0.55640  -0.55182  -0.55077  -0.54917  -0.54384
 Alpha  occ. eigenvalues --   -0.54073  -0.53702  -0.53150  -0.53078  -0.52920
 Alpha  occ. eigenvalues --   -0.52738  -0.52679  -0.52243  -0.51847  -0.51694
 Alpha  occ. eigenvalues --   -0.50921  -0.50881  -0.50781  -0.50503  -0.50393
 Alpha  occ. eigenvalues --   -0.50074  -0.49940  -0.49614  -0.49486  -0.49189
 Alpha  occ. eigenvalues --   -0.49030  -0.48550  -0.48543  -0.48440  -0.47671
 Alpha  occ. eigenvalues --   -0.47415  -0.46360  -0.44501  -0.44064  -0.42128
 Alpha  occ. eigenvalues --   -0.38446  -0.35965  -0.35055  -0.34625
 Alpha virt. eigenvalues --    0.04467   0.06115   0.07436   0.07868   0.10134
 Alpha virt. eigenvalues --    0.13178   0.14992   0.16074   0.17384   0.18053
 Alpha virt. eigenvalues --    0.18308   0.18577   0.18745   0.19377   0.20352

 Mulliken charges:
               1
     1  O   -0.543186
     2  C    0.866591
     3  N   -0.606079
     4  C    0.792118
     5  F   -0.268315
     6  F   -0.267428
     7  C    0.377143
     8  F   -0.264314
     9  O   -0.518308
    10  C    1.001347
    11  F   -0.239227
    12  F   -0.240450
    13  F   -0.240317
    14  C    0.820475
    15  F   -0.242642
    16  F   -0.258781
    17  F   -0.238947
    18  C    0.175896
    19  O   -0.492874
    20  C    0.189176
    21  N   -0.615137
    22  C    0.749152
    23  F   -0.247279
    24  F   -0.277486
    25  C    0.445021
    26  F   -0.283138
    27  O   -0.503996
    28  C    1.015801
    29  F   -0.242657
    30  F   -0.253686
    31  F   -0.244307
    32  C    0.801098
    33  F   -0.250127
    34  F   -0.261225
    35  F   -0.247239
    36  H    0.160275
    37  H    0.146222
    38  H    0.145424
    39  H    0.161409
 Sum of Mulliken charges =   0.00000

 Dipole moment (field-independent basis, Debye):
    X=              2.4087    Y=              4.5305    Z=             -1.5879  Tot=              5.3711
 Quadrupole moment (field-independent basis, Debye-Ang):
   XX=           -187.0290   YY=           -181.1533   ZZ=           -188.6981
   XY=             -0.4694   XZ=             -0.0096   YZ=              1.2332

 Normal termination of Gaussian 09 at Sun Mar  3 18:00:16 2024.
