 Gaussian 09, Revision D.01,
 Gaussian 09:  ES64L-G09RevD.01 24-Apr-2013

 ----------------------------------------------------------------------
 #p CAM-B3LYP/6-31G(d,p) SCRF=(PCM,Solvent=Generic,Read) NoSymm out=wfn
 ----------------------------------------------------------------------

 -------------------
 Title A126125650_p1
 -------------------
 Symbolic Z-matrix:
 Charge =  1 Multiplicity = 2

                          Input orientation:
 ---------------------------------------------------------------------
 Center     Atomic      Atomic             Coordinates (Angstroms)
 Number     Number       Type             X           Y           Z
 ---------------------------------------------------------------------
      1          6           0       -2.335254    4.974399    0.013297
      2          6           0       -3.058093    3.717111    0.471098
      3          6           0       -2.117806    2.548320    0.769042
      4          6           0       -1.385646    2.028320   -0.472554
      5          7           0       -0.579705    0.843497   -0.161237
      6          6           0        0.713232    1.033800    0.281883
      7          8           0        1.183089    2.157968    0.441739
      8          7           0        1.439704   -0.106994    0.507662
      9          6           0        2.862681    0.042792    0.779171
     10          9           0        3.334026   -1.086257    1.373883
     11          9           0        2.987497    0.981011    1.774185
     12          6           0        3.783204    0.476379   -0.400343
     13          9           0        3.096596    1.395997   -1.166987
     14          8           0        4.940416    1.227831    0.003949
     15          6           0        5.949293    0.468605    0.616889
     16          9           0        5.452394   -0.250894    1.629699
     17          9           0        6.885151    1.306113    1.098300
     18          9           0        6.520763   -0.343922   -0.283689
     19          6           0        4.056173   -0.712351   -1.319708
     20          9           0        2.928050   -1.112566   -1.950551
     21          9           0        4.931089   -0.367357   -2.298173
     22          9           0        4.578856   -1.771802   -0.674278
     23          6           0        0.950866   -1.348844    0.194198
     24          8           0        1.711809   -2.280516   -0.050710
     25          7           0       -0.420672   -1.470844    0.135745
     26          6           0       -0.930372   -2.829530   -0.031961
     27          9           0       -0.203425   -3.636615    0.808649
     28          9           0       -0.592019   -3.246938   -1.286736
     29          6           0       -2.421306   -3.218881    0.232016
     30          9           0       -2.511395   -4.594532    0.193256
     31          8           0       -3.450190   -2.775123   -0.650570
     32          6           0       -3.216505   -3.104580   -1.995784
     33          9           0       -2.316939   -2.258694   -2.529511
     34          9           0       -4.373399   -2.979807   -2.674518
     35          9           0       -2.776912   -4.366719   -2.127541
     36          6           0       -2.733950   -2.813714    1.673689
     37          9           0       -2.607433   -1.483370    1.888450
     38          9           0       -4.000812   -3.147033    2.022718
     39          9           0       -1.913863   -3.418134    2.565100
     40          6           0       -1.181275   -0.394117   -0.220677
     41          8           0       -2.351346   -0.519078   -0.568903
     42          1           0       -3.046817    5.800024   -0.089434
     43          1           0       -1.570928    5.274127    0.737194
     44          1           0       -1.854492    4.829721   -0.958527
     45          1           0       -3.620449    3.951396    1.382854
     46          1           0       -3.792731    3.421562   -0.286894
     47          1           0       -2.708780    1.734610    1.208073
     48          1           0       -1.390567    2.845048    1.534792
     49          1           0       -2.111234    1.776397   -1.254848
     50          1           0       -0.730570    2.804188   -0.883398
 ---------------------------------------------------------------------

 SCF Done:  E(UCAM-B3LYP) =  -2913.35277938     A.U. after   36 cycles

 Alpha  occ. eigenvalues --  -24.87217 -24.86885 -24.86705 -24.86598 -24.86443
 Alpha  occ. eigenvalues --  -24.86371 -24.86088 -24.86079 -24.86019 -24.85862
 Alpha  occ. eigenvalues --  -24.85731 -24.85564 -24.85528 -24.85477 -24.85441
 Alpha  occ. eigenvalues --  -24.85414 -24.85385 -24.84928 -19.35862 -19.35522
 Alpha  occ. eigenvalues --  -19.35498 -19.35485 -19.30507 -14.67193 -14.59962
 Alpha  occ. eigenvalues --  -14.59836 -10.61880 -10.61798 -10.58465 -10.58082
 Alpha  occ. eigenvalues --  -10.57986 -10.57717 -10.55138 -10.55058 -10.52759
 Alpha  occ. eigenvalues --  -10.52667 -10.52524 -10.41570 -10.34869 -10.31398
 Alpha  occ. eigenvalues --  -10.28524  -1.45625  -1.45378  -1.44800  -1.44288
 Alpha  occ. eigenvalues --   -1.42763  -1.42660  -1.38995  -1.37919  -1.36114
 Alpha  occ. eigenvalues --   -1.36034  -1.35826  -1.35743  -1.35396  -1.35168
 Alpha  occ. eigenvalues --   -1.35027  -1.35009  -1.34721  -1.34477  -1.32918
 Alpha  occ. eigenvalues --   -1.28180  -1.25670  -1.23192  -1.23152  -1.20357
 Alpha  occ. eigenvalues --   -1.16279  -1.15794  -0.98825  -0.97129  -0.96559
 Alpha  occ. eigenvalues --   -0.91963  -0.91281  -0.90255  -0.85658  -0.85188
 Alpha  occ. eigenvalues --   -0.84844  -0.83738  -0.83501  -0.81514  -0.79847
 Alpha  occ. eigenvalues --   -0.78661  -0.77203  -0.76116  -0.75144  -0.74747
 Alpha  occ. eigenvalues --   -0.73992  -0.73660  -0.73396  -0.72818  -0.72347
 Alpha  occ. eigenvalues --   -0.72096  -0.71751  -0.71135  -0.70786  -0.70591
 Alpha  occ. eigenvalues --   -0.70454  -0.70230  -0.69269  -0.68543  -0.68271
 Alpha  occ. eigenvalues --   -0.68021  -0.67284  -0.65045  -0.64095  -0.63608
 Alpha  occ. eigenvalues --   -0.63149  -0.62311  -0.61566  -0.61102  -0.60734
 Alpha  occ. eigenvalues --   -0.60117  -0.60065  -0.59716  -0.59515  -0.59271
 Alpha  occ. eigenvalues --   -0.59024  -0.58872  -0.58319  -0.58126  -0.57972
 Alpha  occ. eigenvalues --   -0.57481  -0.57446  -0.57277  -0.57122  -0.56690
 Alpha  occ. eigenvalues --   -0.56540  -0.55890  -0.55594  -0.55413  -0.54961
 Alpha  occ. eigenvalues --   -0.54771  -0.54731  -0.54634  -0.54408  -0.54231
 Alpha  occ. eigenvalues --   -0.53935  -0.53747  -0.53518  -0.53204  -0.52894
 Alpha  occ. eigenvalues --   -0.52775  -0.52340  -0.52120  -0.51907  -0.51569
 Alpha  occ. eigenvalues --   -0.51556  -0.51384  -0.51017  -0.50783  -0.50525
 Alpha  occ. eigenvalues --   -0.49432  -0.49086  -0.48410  -0.47463  -0.46586
 Alpha  occ. eigenvalues --   -0.46298  -0.45444  -0.45235  -0.44744  -0.44410
 Alpha  occ. eigenvalues --   -0.43035
 Alpha virt. eigenvalues --   -0.08689  -0.06847  -0.00292   0.01047   0.02851
 Alpha virt. eigenvalues --    0.03347   0.06121   0.06776   0.08706   0.09452
 Alpha virt. eigenvalues --    0.10318   0.11819   0.12620   0.12880   0.13441

  Beta  occ. eigenvalues --  -24.87208 -24.86875 -24.86705 -24.86599 -24.86444
  Beta  occ. eigenvalues --  -24.86371 -24.86087 -24.86079 -24.86019 -24.85853
  Beta  occ. eigenvalues --  -24.85731 -24.85564 -24.85528 -24.85477 -24.85441
  Beta  occ. eigenvalues --  -24.85414 -24.85385 -24.84928 -19.35862 -19.35499
  Beta  occ. eigenvalues --  -19.34895 -19.34888 -19.30528 -14.66049 -14.59996
  Beta  occ. eigenvalues --  -14.59868 -10.61880 -10.61798 -10.58465 -10.58083
  Beta  occ. eigenvalues --  -10.57986 -10.57717 -10.55343 -10.55269 -10.52759
  Beta  occ. eigenvalues --  -10.52664 -10.52525 -10.41480 -10.34668 -10.31350
  Beta  occ. eigenvalues --  -10.28513  -1.45625  -1.45373  -1.44794  -1.44288
  Beta  occ. eigenvalues --   -1.42763  -1.42662  -1.38977  -1.37916  -1.36113
  Beta  occ. eigenvalues --   -1.36026  -1.35817  -1.35741  -1.35389  -1.35163
  Beta  occ. eigenvalues --   -1.35027  -1.35007  -1.34720  -1.34476  -1.32043
  Beta  occ. eigenvalues --   -1.27304  -1.25365  -1.23188  -1.23137  -1.18521
  Beta  occ. eigenvalues --   -1.15835  -1.15585  -0.98437  -0.96912  -0.96415
  Beta  occ. eigenvalues --   -0.91650  -0.91077  -0.90158  -0.85536  -0.84915
  Beta  occ. eigenvalues --   -0.84792  -0.83667  -0.83445  -0.81313  -0.79513
  Beta  occ. eigenvalues --   -0.78642  -0.77095  -0.76092  -0.75070  -0.74718
  Beta  occ. eigenvalues --   -0.73945  -0.73533  -0.72829  -0.72363  -0.72278
  Beta  occ. eigenvalues --   -0.71969  -0.71659  -0.71133  -0.70642  -0.70487
  Beta  occ. eigenvalues --   -0.70262  -0.69874  -0.69102  -0.68179  -0.68096
  Beta  occ. eigenvalues --   -0.67697  -0.67083  -0.64497  -0.63536  -0.63047
  Beta  occ. eigenvalues --   -0.62219  -0.61623  -0.61384  -0.60848  -0.60481
  Beta  occ. eigenvalues --   -0.60076  -0.59924  -0.59670  -0.59463  -0.59208
  Beta  occ. eigenvalues --   -0.58940  -0.58705  -0.58277  -0.57954  -0.57829
  Beta  occ. eigenvalues --   -0.57451  -0.57256  -0.57113  -0.56736  -0.56539
  Beta  occ. eigenvalues --   -0.56450  -0.55670  -0.55367  -0.55304  -0.54891
  Beta  occ. eigenvalues --   -0.54688  -0.54616  -0.54525  -0.54295  -0.53990
  Beta  occ. eigenvalues --   -0.53777  -0.53501  -0.53227  -0.52920  -0.52884
  Beta  occ. eigenvalues --   -0.52410  -0.52326  -0.52006  -0.51803  -0.51560
  Beta  occ. eigenvalues --   -0.51543  -0.51282  -0.50759  -0.50389  -0.49848
  Beta  occ. eigenvalues --   -0.48597  -0.47708  -0.47154  -0.46364  -0.45604
  Beta  occ. eigenvalues --   -0.45062  -0.44963  -0.44308  -0.43943  -0.42901
  Beta virt. eigenvalues --   -0.29549  -0.07495  -0.05959   0.00452   0.01064
  Beta virt. eigenvalues --    0.02877   0.03556   0.06330   0.07072   0.08738
  Beta virt. eigenvalues --    0.09568   0.10595   0.11922   0.12710   0.13024

 Mulliken charges and spin densities:
               1          2
     1  C   -0.336578   0.005156
     2  C   -0.204333   0.025807
     3  C   -0.212169   0.106480
     4  C   -0.098432   0.042903
     5  N   -0.477434   0.521089
     6  C    0.896868  -0.120705
     7  O   -0.372146   0.249040
     8  N   -0.641720  -0.009025
     9  C    0.761153  -0.000463
    10  F   -0.235381   0.000039
    11  F   -0.259028   0.000388
    12  C    0.437049  -0.000518
    13  F   -0.272895   0.002016
    14  O   -0.488504   0.000102
    15  C    0.980767  -0.000005
    16  F   -0.232170   0.000006
    17  F   -0.232602  -0.000008
    18  F   -0.235015   0.000001
    19  C    0.827695  -0.000001
    20  F   -0.247832   0.000001
    21  F   -0.251813   0.000016
    22  F   -0.237973   0.000030
    23  C    0.864667   0.001966
    24  O   -0.422457  -0.007725
    25  N   -0.631674  -0.009513
    26  C    0.778415  -0.000015
    27  F   -0.256371  -0.000172
    28  F   -0.247965  -0.000017
    29  C    0.411945  -0.000239
    30  F   -0.261832   0.000017
    31  O   -0.490893  -0.000142
    32  C    1.005388  -0.000111
    33  F   -0.249953   0.001823
    34  F   -0.234606   0.000034
    35  F   -0.239022   0.000095
    36  C    0.813435  -0.000103
    37  F   -0.247116   0.001829
    38  F   -0.239971   0.000031
    39  F   -0.236323   0.000094
    40  C    0.894155  -0.116339
    41  O   -0.392035   0.236759
    42  H    0.142322   0.004051
    43  H    0.131847  -0.000347
    44  H    0.123635   0.006504
    45  H    0.168853   0.030104
    46  H    0.143542   0.000950
    47  H    0.167425  -0.002499
    48  H    0.172055  -0.001626
    49  H    0.233862   0.015283
    50  H    0.231165   0.016959
 Sum of Mulliken charges =   1.00000   1.00000

 Dipole moment (field-independent basis, Debye):
    X=             -5.3304    Y=              7.4087    Z=              0.3063  Tot=              9.1322
 Quadrupole moment (field-independent basis, Debye-Ang):
   XX=           -200.9318   YY=           -197.9061   ZZ=           -211.7441
   XY=            -15.4256   XZ=             -0.2183   YZ=             -0.4137

 Normal termination of Gaussian 09 at Sun Mar  3 17:30:19 2024.
