 Gaussian 09, Revision D.01,
 Gaussian 09:  ES64L-G09RevD.01 24-Apr-2013

 ----------------------------------------------------------------------
 #p CAM-B3LYP/6-31G(d,p) SCRF=(PCM,Solvent=Generic,Read) NoSymm out=wfn
 ----------------------------------------------------------------------

 ------------------
 Title A126125650_0
 ------------------
 Symbolic Z-matrix:
 Charge =  0 Multiplicity = 1

                          Input orientation:
 ---------------------------------------------------------------------
 Center     Atomic      Atomic             Coordinates (Angstroms)
 Number     Number       Type             X           Y           Z
 ---------------------------------------------------------------------
      1          6           0       -1.556012    4.851364   -1.144463
      2          6           0       -1.482284    3.621860   -0.252303
      3          6           0       -0.245508    3.658197    0.647023
      4          6           0       -0.175729    2.479092    1.625929
      5          7           0       -0.004093    1.187417    0.956784
      6          6           0       -1.093244    0.351487    0.833985
      7          8           0       -2.230905    0.716937    1.120313
      8          7           0       -0.831514   -0.908829    0.363677
      9          6           0       -1.922920   -1.873004    0.308427
     10          9           0       -2.790242   -1.653136    1.332431
     11          9           0       -1.399000   -3.102991    0.619412
     12          6           0       -2.679521   -2.003416   -1.045124
     13          9           0       -1.758776   -1.858619   -2.063467
     14          8           0       -3.208367   -3.315095   -1.299582
     15          6           0       -4.350963   -3.640353   -0.552189
     16          9           0       -5.396536   -2.919346   -0.982931
     17          9           0       -4.623746   -4.945444   -0.727060
     18          9           0       -4.146720   -3.412021    0.750386
     19          6           0       -3.666547   -0.847737   -1.202569
     20          9           0       -3.023206    0.338216   -1.305801
     21          9           0       -4.546541   -0.761201   -0.187006
     22          9           0       -4.386097   -0.986078   -2.344565
     23          6           0        0.339471   -1.225151   -0.283621
     24          8           0        0.519259   -2.331385   -0.785112
     25          7           0        1.300534   -0.247032   -0.336057
     26          6           0        2.584739   -0.590908   -0.935651
     27          9           0        2.350798   -1.233418   -2.115484
     28          9           0        3.210907    0.557117   -1.326077
     29          6           0        3.529008   -1.431367   -0.038084
     30          9           0        2.955474   -2.647489    0.199188
     31          8           0        3.641197   -0.813830    1.249283
     32          6           0        4.660259   -1.363311    2.041631
     33          9           0        4.639939   -2.703742    1.993161
     34          9           0        4.465539   -0.973157    3.314880
     35          9           0        5.848423   -0.899828    1.623885
     36          6           0        4.816911   -1.608493   -0.854733
     37          9           0        5.473148   -0.438268   -1.020927
     38          9           0        5.681248   -2.453054   -0.241226
     39          9           0        4.595555   -2.125522   -2.082542
     40          6           0        1.246178    0.863908    0.468068
     41          8           0        2.240223    1.530935    0.748532
     42          1           0       -0.676843    4.918258   -1.793254
     43          1           0       -1.613535    5.766975   -0.547273
     44          1           0       -2.445247    4.804726   -1.780879
     45          1           0       -1.463258    2.728956   -0.886728
     46          1           0       -2.388746    3.569336    0.361507
     47          1           0        0.656495    3.684210    0.023986
     48          1           0       -0.254063    4.587028    1.230693
     49          1           0       -1.072079    2.465119    2.256383
     50          1           0        0.676939    2.632087    2.298710
 ---------------------------------------------------------------------

 SCF Done:  E(RCAM-B3LYP) =  -2913.68675327     A.U. after   13 cycles

 Alpha  occ. eigenvalues --  -24.84112 -24.83869 -24.83812 -24.83744 -24.83705
 Alpha  occ. eigenvalues --  -24.83677 -24.83567 -24.83400 -24.83369 -24.83365
 Alpha  occ. eigenvalues --  -24.83120 -24.83046 -24.82941 -24.82935 -24.82913
 Alpha  occ. eigenvalues --  -24.82772 -24.82766 -24.81969 -19.33253 -19.33225
 Alpha  occ. eigenvalues --  -19.24390 -19.24126 -19.23941 -14.53413 -14.53239
 Alpha  occ. eigenvalues --  -14.50672 -10.59788 -10.59754 -10.55474 -10.55460
 Alpha  occ. eigenvalues --  -10.53604 -10.53432 -10.49252 -10.49146 -10.46992
 Alpha  occ. eigenvalues --  -10.45861 -10.45812 -10.31826 -10.26795 -10.25762
 Alpha  occ. eigenvalues --  -10.24804  -1.43624  -1.43401  -1.41944  -1.41802
 Alpha  occ. eigenvalues --   -1.39227  -1.38917  -1.35794  -1.35582  -1.34129
 Alpha  occ. eigenvalues --   -1.33714  -1.33602  -1.33465  -1.32925  -1.32825
 Alpha  occ. eigenvalues --   -1.32311  -1.32184  -1.31689  -1.31276  -1.23513
 Alpha  occ. eigenvalues --   -1.20789  -1.20629  -1.18071  -1.17982  -1.10198
 Alpha  occ. eigenvalues --   -1.08793  -1.06753  -0.93912  -0.93148  -0.89641
 Alpha  occ. eigenvalues --   -0.86208  -0.84394  -0.83803  -0.82528  -0.82212
 Alpha  occ. eigenvalues --   -0.79591  -0.78966  -0.77017  -0.75930  -0.74904
 Alpha  occ. eigenvalues --   -0.74280  -0.73408  -0.72972  -0.72081  -0.71539
 Alpha  occ. eigenvalues --   -0.71296  -0.70643  -0.70274  -0.70002  -0.69053
 Alpha  occ. eigenvalues --   -0.68867  -0.68596  -0.67923  -0.67458  -0.66615
 Alpha  occ. eigenvalues --   -0.66468  -0.66283  -0.65074  -0.64758  -0.63854
 Alpha  occ. eigenvalues --   -0.62462  -0.60049  -0.59573  -0.58720  -0.57759
 Alpha  occ. eigenvalues --   -0.57529  -0.57439  -0.57293  -0.57181  -0.56615
 Alpha  occ. eigenvalues --   -0.56269  -0.56134  -0.56037  -0.55611  -0.55497
 Alpha  occ. eigenvalues --   -0.55067  -0.55029  -0.54789  -0.54595  -0.54456
 Alpha  occ. eigenvalues --   -0.54229  -0.54055  -0.53735  -0.53590  -0.53115
 Alpha  occ. eigenvalues --   -0.52995  -0.52701  -0.52582  -0.52243  -0.52087
 Alpha  occ. eigenvalues --   -0.51670  -0.51506  -0.50996  -0.50726  -0.50709
 Alpha  occ. eigenvalues --   -0.50499  -0.50288  -0.50152  -0.50072  -0.49869
 Alpha  occ. eigenvalues --   -0.49796  -0.49213  -0.49016  -0.48948  -0.48743
 Alpha  occ. eigenvalues --   -0.48477  -0.47667  -0.45971  -0.45798  -0.44815
 Alpha  occ. eigenvalues --   -0.44149  -0.43918  -0.41797  -0.40231  -0.40097
 Alpha  occ. eigenvalues --   -0.40039  -0.39400  -0.38780  -0.38363  -0.36244
 Alpha  occ. eigenvalues --   -0.35735
 Alpha virt. eigenvalues --    0.00080   0.00446   0.05309   0.05597   0.06699
 Alpha virt. eigenvalues --    0.08444   0.11002   0.13393   0.13516   0.15329
 Alpha virt. eigenvalues --    0.15869   0.16729   0.17049   0.17508   0.18004

 Mulliken charges:
               1
     1  C   -0.321339
     2  C   -0.173002
     3  C   -0.185839
     4  C   -0.073897
     5  N   -0.578643
     6  C    0.831761
     7  O   -0.495606
     8  N   -0.643320
     9  C    0.757625
    10  F   -0.245223
    11  F   -0.266815
    12  C    0.436367
    13  F   -0.271968
    14  O   -0.493636
    15  C    0.975512
    16  F   -0.239644
    17  F   -0.236429
    18  F   -0.233670
    19  C    0.819582
    20  F   -0.245401
    21  F   -0.241809
    22  F   -0.257889
    23  C    0.843935
    24  O   -0.478778
    25  N   -0.657102
    26  C    0.761253
    27  F   -0.253254
    28  F   -0.252394
    29  C    0.436073
    30  F   -0.254314
    31  O   -0.506238
    32  C    0.994798
    33  F   -0.241944
    34  F   -0.239405
    35  F   -0.241926
    36  C    0.813576
    37  F   -0.245181
    38  F   -0.258700
    39  F   -0.242517
    40  C    0.836207
    41  O   -0.490572
    42  H    0.105235
    43  H    0.106279
    44  H    0.107534
    45  H    0.089107
    46  H    0.110937
    47  H    0.118511
    48  H    0.113679
    49  H    0.157197
    50  H    0.151283
 Sum of Mulliken charges =   0.00000

 Dipole moment (field-independent basis, Debye):
    X=             -0.7204    Y=              2.5416    Z=              1.3561  Tot=              2.9695
 Quadrupole moment (field-independent basis, Debye-Ang):
   XX=           -231.0382   YY=           -221.2548   ZZ=           -218.9623
   XY=             -1.4405   XZ=              1.9636   YZ=             -1.7129

 Normal termination of Gaussian 09 at Tue Mar  5 17:53:37 2024.
