 Gaussian 09, Revision D.01,
 Gaussian 09:  ES64L-G09RevD.01 24-Apr-2013

 ----------------------------------------------------------------------
 #p CAM-B3LYP/6-31G(d,p) SCRF=(PCM,Solvent=Generic,Read) NoSymm out=wfn
 ----------------------------------------------------------------------

 ---------------
 Title FFKM2_pos
 ---------------
 Symbolic Z-matrix:
 Charge =  1 Multiplicity = 2

                          Input orientation:
 ---------------------------------------------------------------------
 Center     Atomic      Atomic             Coordinates (Angstroms)
 Number     Number       Type             X           Y           Z
 ---------------------------------------------------------------------
      1          9           0        3.321441   -1.135323    0.154805
      2          6           0        3.157609    0.184768   -0.040344
      3          9           0        3.381064    0.849189    1.108817
      4          9           0        4.068697    0.595454   -0.946644
      5          8           0        1.884100    0.491188   -0.530340
      6          6           0        0.909456   -0.226068    0.194005
      7          9           0        0.958780   -1.514265   -0.220953
      8          9           0        1.225023   -0.209390    1.509535
      9          6           0       -0.482401    0.355990   -0.035407
     10          9           0       -0.500470    1.664392    0.349478
     11          9           0       -0.769100    0.358789   -1.368403
     12          6           0       -1.510811   -0.436001    0.727606
     13          9           0       -1.492292   -1.744005    0.344382
     14          9           0       -1.225250   -0.435179    2.060646
     15          6           0       -2.883587    0.157129    0.488934
     16          9           0       -2.967798    1.442994    0.901714
     17          9           0       -3.235865    0.131927   -0.817218
     18          9           0       -3.838597   -0.531590    1.163208
 ---------------------------------------------------------------------

 SCF Done:  E(UCAM-B3LYP) =  -1463.04693192     A.U. after   20 cycles

 Alpha  occ. eigenvalues --  -24.96400 -24.96094 -24.96039 -24.96022 -24.93656
 Alpha  occ. eigenvalues --  -24.92926 -24.91959 -24.91895 -24.91250 -24.88506
 Alpha  occ. eigenvalues --  -24.87425 -24.87259 -19.40802 -10.65428 -10.65093
 Alpha  occ. eigenvalues --  -10.64590 -10.63900 -10.63538  -1.52619  -1.50430
 Alpha  occ. eigenvalues --   -1.49553  -1.48935  -1.46497  -1.44933  -1.43643
 Alpha  occ. eigenvalues --   -1.42234  -1.40736  -1.40265  -1.37792  -1.36814
 Alpha  occ. eigenvalues --   -1.28688  -1.07521  -1.00486  -0.91871  -0.85943
 Alpha  occ. eigenvalues --   -0.84771  -0.82281  -0.81630  -0.80928  -0.79201
 Alpha  occ. eigenvalues --   -0.78253  -0.77820  -0.75977  -0.75529  -0.74635
 Alpha  occ. eigenvalues --   -0.73682  -0.73330  -0.69618  -0.68158  -0.67274
 Alpha  occ. eigenvalues --   -0.66935  -0.66779  -0.66395  -0.63748  -0.63538
 Alpha  occ. eigenvalues --   -0.63138  -0.62913  -0.62859  -0.61596  -0.61410
 Alpha  occ. eigenvalues --   -0.60848  -0.60146  -0.59540  -0.59245  -0.59086
 Alpha  occ. eigenvalues --   -0.58252  -0.57283  -0.57223  -0.56705  -0.55403
 Alpha  occ. eigenvalues --   -0.54614  -0.53973  -0.52365
 Alpha virt. eigenvalues --   -0.06090  -0.03714   0.02202   0.06184   0.10158
 Alpha virt. eigenvalues --    0.12563   0.12699   0.14567   0.15131   0.16097
 Alpha virt. eigenvalues --    0.17010   0.18655   0.19367   0.19462   0.21740

  Beta  occ. eigenvalues --  -24.96039 -24.95755 -24.95717 -24.95690 -24.93452
  Beta  occ. eigenvalues --  -24.92696 -24.91811 -24.91753 -24.91099 -24.88465
  Beta  occ. eigenvalues --  -24.87386 -24.87256 -19.40646 -10.65280 -10.64933
  Beta  occ. eigenvalues --  -10.64591 -10.63664 -10.63317  -1.52004  -1.49949
  Beta  occ. eigenvalues --   -1.49007  -1.48502  -1.46341  -1.44211  -1.42863
  Beta  occ. eigenvalues --   -1.41719  -1.40373  -1.39898  -1.37718  -1.36751
  Beta  occ. eigenvalues --   -1.28283  -1.06201  -0.99019  -0.90671  -0.85453
  Beta  occ. eigenvalues --   -0.84333  -0.81627  -0.80945  -0.80569  -0.78679
  Beta  occ. eigenvalues --   -0.77912  -0.77399  -0.75683  -0.75063  -0.74377
  Beta  occ. eigenvalues --   -0.73498  -0.72962  -0.69047  -0.67048  -0.66156
  Beta  occ. eigenvalues --   -0.65540  -0.64970  -0.64701  -0.62957  -0.62718
  Beta  occ. eigenvalues --   -0.62447  -0.61699  -0.61408  -0.61115  -0.60644
  Beta  occ. eigenvalues --   -0.59717  -0.59592  -0.58955  -0.58559  -0.58438
  Beta  occ. eigenvalues --   -0.57073  -0.57054  -0.56419  -0.56204  -0.54963
  Beta  occ. eigenvalues --   -0.53926  -0.51747
  Beta virt. eigenvalues --   -0.38725  -0.05631  -0.03060   0.02707   0.06821
  Beta virt. eigenvalues --    0.11587   0.12937   0.13131   0.14989   0.15664
  Beta virt. eigenvalues --    0.16507   0.17376   0.18862   0.19431   0.20081

 Mulliken charges and spin densities:
               1          2
     1  F   -0.225057   0.010643
     2  C    1.013996  -0.000776
     3  F   -0.229564   0.001079
     4  F   -0.220294   0.010671
     5  O   -0.480641   0.053734
     6  C    0.831417   0.059755
     7  F   -0.187283   0.064154
     8  F   -0.193640   0.056707
     9  C    0.536432   0.095533
    10  F   -0.159327   0.092093
    11  F   -0.155102   0.101941
    12  C    0.517894   0.088215
    13  F   -0.160875   0.093721
    14  F   -0.161024   0.095036
    15  C    0.847822   0.055751
    16  F   -0.191655   0.038981
    17  F   -0.191337   0.040486
    18  F   -0.191763   0.042277
 Sum of Mulliken charges =   1.00000   1.00000

 Dipole moment (field-independent basis, Debye):
    X=             -3.3152    Y=             -0.3243    Z=              1.6247  Tot=              3.7061
 Quadrupole moment (field-independent basis, Debye-Ang):
   XX=            -70.7418   YY=            -85.9447   ZZ=            -85.4482
   XY=              0.1145   XZ=             -2.7194   YZ=             -0.3955

 Normal termination of Gaussian 09 at Sun Feb  2 08:45:12 2025.
