 Gaussian 09, Revision D.01,
 Gaussian 09:  ES64L-G09RevD.01 24-Apr-2013

 ----------------------------------------------------------------------
 #p CAM-B3LYP/6-31G(d,p) SCRF=(PCM,Solvent=Generic,Read) NoSymm out=wfn
 ----------------------------------------------------------------------

 ---------------
 Title FFKM2_neu
 ---------------
 Symbolic Z-matrix:
 Charge =  0 Multiplicity = 1

                          Input orientation:
 ---------------------------------------------------------------------
 Center     Atomic      Atomic             Coordinates (Angstroms)
 Number     Number       Type             X           Y           Z
 ---------------------------------------------------------------------
      1          9           0        3.321441   -1.135323    0.154805
      2          6           0        3.157609    0.184768   -0.040344
      3          9           0        3.381064    0.849189    1.108817
      4          9           0        4.068697    0.595454   -0.946644
      5          8           0        1.884100    0.491188   -0.530340
      6          6           0        0.909456   -0.226068    0.194005
      7          9           0        0.958780   -1.514265   -0.220953
      8          9           0        1.225023   -0.209390    1.509535
      9          6           0       -0.482401    0.355990   -0.035407
     10          9           0       -0.500470    1.664392    0.349478
     11          9           0       -0.769100    0.358789   -1.368403
     12          6           0       -1.510811   -0.436001    0.727606
     13          9           0       -1.492292   -1.744005    0.344382
     14          9           0       -1.225250   -0.435179    2.060646
     15          6           0       -2.883587    0.157129    0.488934
     16          9           0       -2.967798    1.442994    0.901714
     17          9           0       -3.235865    0.131927   -0.817218
     18          9           0       -3.838597   -0.531590    1.163208
 ---------------------------------------------------------------------

 SCF Done:  E(RCAM-B3LYP) =  -1463.45750897     A.U. after   11 cycles

 Alpha  occ. eigenvalues --  -24.83978 -24.83777 -24.83751 -24.83729 -24.83683
 Alpha  occ. eigenvalues --  -24.83644 -24.83305 -24.83302 -24.83080 -24.83073
 Alpha  occ. eigenvalues --  -24.82890 -24.82865 -19.32759 -10.59407 -10.55142
 Alpha  occ. eigenvalues --  -10.54148 -10.50041 -10.50007  -1.43180  -1.42168
 Alpha  occ. eigenvalues --   -1.40408  -1.38650  -1.38194  -1.34012  -1.33371
 Alpha  occ. eigenvalues --   -1.32852  -1.32478  -1.32199  -1.32067  -1.31985
 Alpha  occ. eigenvalues --   -1.20957  -0.94943  -0.89403  -0.82748  -0.77817
 Alpha  occ. eigenvalues --   -0.76021  -0.72869  -0.72380  -0.70838  -0.70355
 Alpha  occ. eigenvalues --   -0.69915  -0.69662  -0.68378  -0.67721  -0.66390
 Alpha  occ. eigenvalues --   -0.66028  -0.64191  -0.61776  -0.58115  -0.57779
 Alpha  occ. eigenvalues --   -0.56897  -0.56823  -0.56703  -0.55720  -0.55488
 Alpha  occ. eigenvalues --   -0.55233  -0.54254  -0.53398  -0.53294  -0.52815
 Alpha  occ. eigenvalues --   -0.52040  -0.51539  -0.51211  -0.51084  -0.50980
 Alpha  occ. eigenvalues --   -0.50643  -0.50587  -0.49935  -0.49604  -0.49486
 Alpha  occ. eigenvalues --   -0.49001  -0.45366  -0.43368
 Alpha virt. eigenvalues --    0.05441   0.07036   0.12634   0.16133   0.19629
 Alpha virt. eigenvalues --    0.21366   0.21914   0.22288   0.23869   0.24368
 Alpha virt. eigenvalues --    0.24431   0.25919   0.27600   0.29404   0.32791

 Mulliken charges:
               1
     1  F   -0.244076
     2  C    0.991732
     3  F   -0.245710
     4  F   -0.244961
     5  O   -0.526158
     6  C    0.793010
     7  F   -0.258159
     8  F   -0.260193
     9  C    0.513738
    10  F   -0.264048
    11  F   -0.264312
    12  C    0.496460
    13  F   -0.263887
    14  F   -0.264640
    15  C    0.789979
    16  F   -0.247702
    17  F   -0.247836
    18  F   -0.253236
 Sum of Mulliken charges =   0.00000

 Dipole moment (field-independent basis, Debye):
    X=             -0.0550    Y=             -0.1136    Z=              0.1149  Tot=              0.1707
 Quadrupole moment (field-independent basis, Debye-Ang):
   XX=            -94.2769   YY=            -93.1056   ZZ=            -92.9165
   XY=             -0.0684   XZ=              0.1729   YZ=              0.3670

 Normal termination of Gaussian 09 at Sat Feb  1 13:58:53 2025.
