 Gaussian 09, Revision D.01,
 Gaussian 09:  ES64L-G09RevD.01 24-Apr-2013

 ----------------------------------------------------------------------
 #p CAM-B3LYP/6-31G(d,p) SCRF=(PCM,Solvent=Generic,Read) NoSymm out=wfn
 ----------------------------------------------------------------------

 -------------------
 Title A1374950791_0
 -------------------
 Symbolic Z-matrix:
 Charge =  0 Multiplicity = 1

                          Input orientation:
 ---------------------------------------------------------------------
 Center     Atomic      Atomic             Coordinates (Angstroms)
 Number     Number       Type             X           Y           Z
 ---------------------------------------------------------------------
      1          8           0        1.709266   -3.351718    0.120110
      2          6           0        0.797663   -2.527818    0.157533
      3          7           0       -0.447464   -2.806358    0.689667
      4         17           0       -0.840765   -4.468734    1.042297
      5          6           0       -1.402465   -1.840506    0.945565
      6          8           0       -2.575060   -2.108503    1.202128
      7          7           0       -0.941983   -0.541200    0.871962
      8          6           0       -1.860113    0.530208    1.245606
      9          9           0       -2.609704    0.119131    2.307114
     10          9           0       -1.127929    1.558965    1.758497
     11          6           0       -2.778348    1.033332    0.103454
     12          9           0       -2.001694    1.590647   -0.872178
     13          8           0       -3.414307   -0.086894   -0.521837
     14          6           0       -4.450425    0.281357   -1.394732
     15          9           0       -4.746903   -0.776409   -2.171287
     16          9           0       -5.536182    0.615562   -0.681173
     17          9           0       -4.075297    1.302279   -2.179825
     18          6           0       -3.676829    2.103009    0.740016
     19          9           0       -4.529936    1.570427    1.642816
     20          9           0       -2.974624    3.070292    1.368545
     21          9           0       -4.435965    2.731176   -0.189601
     22          6           0        0.173375   -0.205109    0.142324
     23          8           0        0.472611    0.964418   -0.077505
     24          7           0        0.947299   -1.241090   -0.321435
     25          6           0        2.200803   -0.917195   -0.997607
     26          9           0        1.965769    0.065637   -1.907100
     27          9           0        2.548841   -1.976838   -1.780740
     28          6           0        3.368531   -0.532866   -0.050377
     29          9           0        3.541187   -1.564735    0.845066
     30          8           0        3.074223    0.569381    0.817769
     31          6           0        3.365955    1.840714    0.284262
     32          9           0        2.795787    2.775711    1.063540
     33          9           0        2.901326    1.959834   -0.964151
     34          9           0        4.694785    2.029853    0.287745
     35          6           0        4.644544   -0.458957   -0.899377
     36          9           0        4.929306   -1.629978   -1.510540
     37          9           0        4.576854    0.483617   -1.862360
     38          9           0        5.717869   -0.160641   -0.126531
 ---------------------------------------------------------------------

 SCF Done:  E(RCAM-B3LYP) =  -3216.05717049     A.U. after   13 cycles

 Alpha  occ. eigenvalues -- -101.70149 -24.83926 -24.83790 -24.83736 -24.83625
 Alpha  occ. eigenvalues --  -24.83593 -24.83569 -24.83465 -24.83464 -24.83449
 Alpha  occ. eigenvalues --  -24.83413 -24.83391 -24.83364 -24.83337 -24.83327
 Alpha  occ. eigenvalues --  -24.83273 -24.83182 -24.83031 -24.82805 -19.33423
 Alpha  occ. eigenvalues --  -19.33314 -19.25422 -19.25392 -19.25089 -14.55853
 Alpha  occ. eigenvalues --  -14.54015 -14.53945 -10.59891 -10.59597 -10.55750
 Alpha  occ. eigenvalues --  -10.55608 -10.54064 -10.53809 -10.49456 -10.49434
 Alpha  occ. eigenvalues --  -10.47709 -10.47523 -10.47501  -9.61339  -7.38326
 Alpha  occ. eigenvalues --   -7.36648  -7.36637  -1.43553  -1.43351  -1.42064
 Alpha  occ. eigenvalues --   -1.41918  -1.39714  -1.39653  -1.36093  -1.35690
 Alpha  occ. eigenvalues --   -1.33874  -1.33854  -1.33609  -1.33394  -1.33125
 Alpha  occ. eigenvalues --   -1.32780  -1.32454  -1.32412  -1.32106  -1.31949
 Alpha  occ. eigenvalues --   -1.24455  -1.20985  -1.20671  -1.19070  -1.18877
 Alpha  occ. eigenvalues --   -1.11130  -1.09462  -1.09340  -0.95454  -0.93597
 Alpha  occ. eigenvalues --   -0.93057  -0.86400  -0.85228  -0.82593  -0.82486
 Alpha  occ. eigenvalues --   -0.80148  -0.79734  -0.76992  -0.76105  -0.75630
 Alpha  occ. eigenvalues --   -0.74218  -0.73451  -0.72766  -0.72153  -0.71210
 Alpha  occ. eigenvalues --   -0.70917  -0.70489  -0.69601  -0.69515  -0.68824
 Alpha  occ. eigenvalues --   -0.68522  -0.68176  -0.67519  -0.67037  -0.66789
 Alpha  occ. eigenvalues --   -0.66244  -0.64997  -0.64270  -0.62947  -0.60592
 Alpha  occ. eigenvalues --   -0.60257  -0.59698  -0.58094  -0.58005  -0.57579
 Alpha  occ. eigenvalues --   -0.57475  -0.57168  -0.56771  -0.56537  -0.56371
 Alpha  occ. eigenvalues --   -0.56230  -0.55917  -0.55761  -0.55605  -0.55292
 Alpha  occ. eigenvalues --   -0.55169  -0.55016  -0.54934  -0.54499  -0.53966
 Alpha  occ. eigenvalues --   -0.53764  -0.53643  -0.53528  -0.53037  -0.52763
 Alpha  occ. eigenvalues --   -0.52481  -0.52293  -0.51828  -0.51288  -0.51201
 Alpha  occ. eigenvalues --   -0.50998  -0.50809  -0.50576  -0.50411  -0.50215
 Alpha  occ. eigenvalues --   -0.50157  -0.49703  -0.49327  -0.49237  -0.49021
 Alpha  occ. eigenvalues --   -0.48726  -0.48112  -0.46188  -0.45694  -0.44968
 Alpha  occ. eigenvalues --   -0.43844  -0.43391  -0.41370  -0.40653  -0.40107
 Alpha  occ. eigenvalues --   -0.38883  -0.37373  -0.36875
 Alpha virt. eigenvalues --   -0.04836  -0.00479  -0.00094   0.04723   0.05403
 Alpha virt. eigenvalues --    0.07359   0.09069   0.10775   0.12704   0.14767
 Alpha virt. eigenvalues --    0.17073   0.17615   0.17995   0.19341   0.19588

 Mulliken charges:
               1
     1  O   -0.467323
     2  C    0.856422
     3  N   -0.679768
     4  Cl   0.259896
     5  C    0.868767
     6  O   -0.468239
     7  N   -0.654456
     8  C    0.762423
     9  F   -0.250552
    10  F   -0.251199
    11  C    0.436429
    12  F   -0.256099
    13  O   -0.506356
    14  C    0.997216
    15  F   -0.238068
    16  F   -0.241491
    17  F   -0.242192
    18  C    0.815971
    19  F   -0.244929
    20  F   -0.242780
    21  F   -0.257594
    22  C    0.863981
    23  O   -0.487221
    24  N   -0.648676
    25  C    0.766769
    26  F   -0.245057
    27  F   -0.253916
    28  C    0.441493
    29  F   -0.263412
    30  O   -0.510519
    31  C    1.010462
    32  F   -0.241504
    33  F   -0.240099
    34  F   -0.245968
    35  C    0.803872
    36  F   -0.243062
    37  F   -0.245786
    38  F   -0.257432
 Sum of Mulliken charges =   0.00000

 Dipole moment (field-independent basis, Debye):
    X=             -0.6903    Y=             -0.8506    Z=             -0.0312  Tot=              1.0959
 Quadrupole moment (field-independent basis, Debye-Ang):
   XX=           -217.1531   YY=           -208.0575   ZZ=           -204.9424
   XY=              3.8294   XZ=              4.2947   YZ=             -0.8789

 Normal termination of Gaussian 09 at Sun Mar  3 18:26:52 2024.
