 Gaussian 09, Revision D.01,
 Gaussian 09:  ES64L-G09RevD.01 24-Apr-2013

 ----------------------------------------------------------------------
 #p CAM-B3LYP/6-31G(d,p) SCRF=(PCM,Solvent=Generic,Read) NoSymm out=wfn
 ----------------------------------------------------------------------

 --------------------
 Title A1374950791_p1
 --------------------
 Symbolic Z-matrix:
 Charge =  1 Multiplicity = 2

                          Input orientation:
 ---------------------------------------------------------------------
 Center     Atomic      Atomic             Coordinates (Angstroms)
 Number     Number       Type             X           Y           Z
 ---------------------------------------------------------------------
      1          8           0        1.709266   -3.351718    0.120110
      2          6           0        0.797663   -2.527818    0.157533
      3          7           0       -0.447464   -2.806358    0.689667
      4         17           0       -0.840765   -4.468734    1.042297
      5          6           0       -1.402465   -1.840506    0.945565
      6          8           0       -2.575060   -2.108503    1.202128
      7          7           0       -0.941983   -0.541200    0.871962
      8          6           0       -1.860113    0.530208    1.245606
      9          9           0       -2.609704    0.119131    2.307114
     10          9           0       -1.127929    1.558965    1.758497
     11          6           0       -2.778348    1.033332    0.103454
     12          9           0       -2.001694    1.590647   -0.872178
     13          8           0       -3.414307   -0.086894   -0.521837
     14          6           0       -4.450425    0.281357   -1.394732
     15          9           0       -4.746903   -0.776409   -2.171287
     16          9           0       -5.536182    0.615562   -0.681173
     17          9           0       -4.075297    1.302279   -2.179825
     18          6           0       -3.676829    2.103009    0.740016
     19          9           0       -4.529936    1.570427    1.642816
     20          9           0       -2.974624    3.070292    1.368545
     21          9           0       -4.435965    2.731176   -0.189601
     22          6           0        0.173375   -0.205109    0.142324
     23          8           0        0.472611    0.964418   -0.077505
     24          7           0        0.947299   -1.241090   -0.321435
     25          6           0        2.200803   -0.917195   -0.997607
     26          9           0        1.965769    0.065637   -1.907100
     27          9           0        2.548841   -1.976838   -1.780740
     28          6           0        3.368531   -0.532866   -0.050377
     29          9           0        3.541187   -1.564735    0.845066
     30          8           0        3.074223    0.569381    0.817769
     31          6           0        3.365955    1.840714    0.284262
     32          9           0        2.795787    2.775711    1.063540
     33          9           0        2.901326    1.959834   -0.964151
     34          9           0        4.694785    2.029853    0.287745
     35          6           0        4.644544   -0.458957   -0.899377
     36          9           0        4.929306   -1.629978   -1.510540
     37          9           0        4.576854    0.483617   -1.862360
     38          9           0        5.717869   -0.160641   -0.126531
 ---------------------------------------------------------------------

 SCF Done:  E(UCAM-B3LYP) =  -3215.71626494     A.U. after   31 cycles

 Alpha  occ. eigenvalues -- -101.83380 -24.87900 -24.87744 -24.87207 -24.87083
 Alpha  occ. eigenvalues --  -24.86690 -24.86226 -24.86034 -24.85958 -24.85819
 Alpha  occ. eigenvalues --  -24.85748 -24.85731 -24.85718 -24.85593 -24.85522
 Alpha  occ. eigenvalues --  -24.85503 -24.85387 -24.85086 -24.84890 -19.37482
 Alpha  occ. eigenvalues --  -19.37384 -19.36423 -19.36117 -19.31046 -14.72354
 Alpha  occ. eigenvalues --  -14.60840 -14.60769 -10.62243 -10.61832 -10.58453
 Alpha  occ. eigenvalues --  -10.58208 -10.58113 -10.58007 -10.57018 -10.56968
 Alpha  occ. eigenvalues --  -10.53552 -10.52711 -10.52649  -9.74287  -7.51215
 Alpha  occ. eigenvalues --   -7.50041  -7.49380  -1.45767  -1.45592  -1.44550
 Alpha  occ. eigenvalues --   -1.44334  -1.43451  -1.43354  -1.39026  -1.38940
 Alpha  occ. eigenvalues --   -1.36660  -1.36559  -1.35972  -1.35703  -1.35670
 Alpha  occ. eigenvalues --   -1.35339  -1.34882  -1.34866  -1.34539  -1.34445
 Alpha  occ. eigenvalues --   -1.34311  -1.29285  -1.26672  -1.23904  -1.23396
 Alpha  occ. eigenvalues --   -1.22848  -1.17541  -1.16571  -1.06471  -0.97620
 Alpha  occ. eigenvalues --   -0.96994  -0.93647  -0.91412  -0.87249  -0.85959
 Alpha  occ. eigenvalues --   -0.85106  -0.84873  -0.83512  -0.80532  -0.79159
 Alpha  occ. eigenvalues --   -0.77308  -0.76512  -0.75925  -0.75295  -0.74755
 Alpha  occ. eigenvalues --   -0.73696  -0.73463  -0.73311  -0.72552  -0.72158
 Alpha  occ. eigenvalues --   -0.71750  -0.71413  -0.71063  -0.70673  -0.70034
 Alpha  occ. eigenvalues --   -0.69951  -0.69636  -0.69392  -0.68527  -0.67427
 Alpha  occ. eigenvalues --   -0.66511  -0.64985  -0.63809  -0.63439  -0.62932
 Alpha  occ. eigenvalues --   -0.62319  -0.61467  -0.60343  -0.60108  -0.59921
 Alpha  occ. eigenvalues --   -0.59749  -0.59568  -0.59418  -0.59140  -0.59045
 Alpha  occ. eigenvalues --   -0.58446  -0.58127  -0.58021  -0.57930  -0.57398
 Alpha  occ. eigenvalues --   -0.57007  -0.56928  -0.56578  -0.56320  -0.55993
 Alpha  occ. eigenvalues --   -0.55462  -0.55315  -0.55068  -0.54558  -0.54466
 Alpha  occ. eigenvalues --   -0.54305  -0.54041  -0.53732  -0.53417  -0.53204
 Alpha  occ. eigenvalues --   -0.53052  -0.52658  -0.52465  -0.52129  -0.52067
 Alpha  occ. eigenvalues --   -0.51886  -0.51487  -0.51386  -0.51234  -0.51059
 Alpha  occ. eigenvalues --   -0.50726  -0.49745  -0.49453  -0.48310  -0.47958
 Alpha  occ. eigenvalues --   -0.46643  -0.44778  -0.43969
 Alpha virt. eigenvalues --   -0.16265  -0.09827  -0.07760  -0.00003   0.01033
 Alpha virt. eigenvalues --    0.01964   0.05215   0.06038   0.08391   0.10186
 Alpha virt. eigenvalues --    0.10988   0.13222   0.13832   0.14553   0.15160

  Beta  occ. eigenvalues -- -101.83190 -24.87882 -24.87726 -24.87205 -24.87080
  Beta  occ. eigenvalues --  -24.86690 -24.86225 -24.86034 -24.85958 -24.85819
  Beta  occ. eigenvalues --  -24.85748 -24.85731 -24.85718 -24.85592 -24.85522
  Beta  occ. eigenvalues --  -24.85503 -24.85386 -24.85086 -24.84890 -19.36815
  Beta  occ. eigenvalues --  -19.36727 -19.36422 -19.36116 -19.31013 -14.71249
  Beta  occ. eigenvalues --  -14.60860 -14.60788 -10.62243 -10.61832 -10.58453
  Beta  occ. eigenvalues --  -10.58208 -10.58113 -10.58007 -10.57224 -10.57173
  Beta  occ. eigenvalues --  -10.53569 -10.52712 -10.52650  -9.74106  -7.51150
  Beta  occ. eigenvalues --   -7.49401  -7.49269  -1.45766  -1.45591  -1.44542
  Beta  occ. eigenvalues --   -1.44327  -1.43440  -1.43342  -1.39024  -1.38938
  Beta  occ. eigenvalues --   -1.36639  -1.36536  -1.35971  -1.35703  -1.35666
  Beta  occ. eigenvalues --   -1.35336  -1.34878  -1.34863  -1.34524  -1.34326
  Beta  occ. eigenvalues --   -1.33466  -1.28288  -1.26370  -1.23886  -1.23392
  Beta  occ. eigenvalues --   -1.20949  -1.17299  -1.16366  -1.05284  -0.97560
  Beta  occ. eigenvalues --   -0.96939  -0.93294  -0.91378  -0.86943  -0.85804
  Beta  occ. eigenvalues --   -0.85086  -0.84803  -0.83440  -0.80444  -0.79150
  Beta  occ. eigenvalues --   -0.77239  -0.76455  -0.75783  -0.75173  -0.74666
  Beta  occ. eigenvalues --   -0.73666  -0.73261  -0.72547  -0.72033  -0.71816
  Beta  occ. eigenvalues --   -0.71590  -0.70948  -0.70910  -0.70648  -0.69992
  Beta  occ. eigenvalues --   -0.69886  -0.69457  -0.69009  -0.68494  -0.67365
  Beta  occ. eigenvalues --   -0.65782  -0.64151  -0.63050  -0.62836  -0.62433
  Beta  occ. eigenvalues --   -0.61882  -0.61343  -0.60303  -0.60076  -0.59807
  Beta  occ. eigenvalues --   -0.59629  -0.59479  -0.59393  -0.59079  -0.58965
  Beta  occ. eigenvalues --   -0.58417  -0.57993  -0.57935  -0.57908  -0.57218
  Beta  occ. eigenvalues --   -0.56933  -0.56575  -0.56443  -0.55928  -0.55638
  Beta  occ. eigenvalues --   -0.55333  -0.55141  -0.54772  -0.54468  -0.54240
  Beta  occ. eigenvalues --   -0.53796  -0.53719  -0.53436  -0.53242  -0.53140
  Beta  occ. eigenvalues --   -0.52867  -0.52492  -0.52412  -0.52102  -0.51966
  Beta  occ. eigenvalues --   -0.51684  -0.51370  -0.51193  -0.50714  -0.49667
  Beta  occ. eigenvalues --   -0.48915  -0.48184  -0.47886  -0.47835  -0.46179
  Beta  occ. eigenvalues --   -0.44501  -0.43591
  Beta virt. eigenvalues --   -0.30955  -0.15200  -0.08829  -0.06662   0.00566
  Beta virt. eigenvalues --    0.01090   0.02034   0.05245   0.06087   0.08448
  Beta virt. eigenvalues --    0.10174   0.11210   0.13483   0.13843   0.14563

 Mulliken charges and spin densities:
               1          2
     1  O   -0.332090   0.258452
     2  C    0.907532  -0.116472
     3  N   -0.583376   0.461259
     4  Cl   0.582273   0.244303
     5  C    0.920276  -0.117177
     6  O   -0.332016   0.262202
     7  N   -0.656801  -0.002950
     8  C    0.763522  -0.000614
     9  F   -0.241375   0.003620
    10  F   -0.236084   0.000667
    11  C    0.441033  -0.000044
    12  F   -0.249571   0.000104
    13  O   -0.518036   0.000120
    14  C    1.002841  -0.000004
    15  F   -0.235383   0.000000
    16  F   -0.236720   0.000019
    17  F   -0.237470   0.000012
    18  C    0.823675  -0.000067
    19  F   -0.241959   0.000039
    20  F   -0.238398   0.000001
    21  F   -0.251152   0.000041
    22  C    0.895135  -0.007672
    23  O   -0.435926   0.012961
    24  N   -0.650335  -0.002856
    25  C    0.767931  -0.000657
    26  F   -0.230180   0.000725
    27  F   -0.244510   0.003698
    28  C    0.442990  -0.000035
    29  F   -0.262771   0.000031
    30  O   -0.509585   0.000242
    31  C    1.013648  -0.000048
    32  F   -0.237216  -0.000001
    33  F   -0.239202  -0.000003
    34  F   -0.240487   0.000006
    35  C    0.811846  -0.000010
    36  F   -0.240329   0.000038
    37  F   -0.240980   0.000002
    38  F   -0.250750   0.000064
 Sum of Mulliken charges =   1.00000   1.00000

 Dipole moment (field-independent basis, Debye):
    X=             -2.7100    Y=            -13.4163    Z=              3.0360  Tot=             14.0199
 Quadrupole moment (field-independent basis, Debye-Ang):
   XX=           -198.0331   YY=           -153.7056   ZZ=           -196.5771
   XY=              9.4228   XZ=             -0.5729   YZ=            -11.3077

 Normal termination of Gaussian 09 at Sun Mar  3 18:28:16 2024.
