 Gaussian 09, Revision D.01,
 Gaussian 09:  ES64L-G09RevD.01 24-Apr-2013

 ----------------------------------------------------------------------
 #p CAM-B3LYP/6-31G(d,p) SCRF=(PCM,Solvent=Generic,Read) NoSymm out=wfn
 ----------------------------------------------------------------------

 ----------------
 Title finalDD2_0
 ----------------
 Symbolic Z-matrix:
 Charge =  0 Multiplicity = 1

                          Input orientation:
 ---------------------------------------------------------------------
 Center     Atomic      Atomic             Coordinates (Angstroms)
 Number     Number       Type             X           Y           Z
 ---------------------------------------------------------------------
      1          8           0        5.718764   -0.802777    1.333028
      2          6           0        4.493369   -0.683843    1.292495
      3          7           0        3.883417    0.549788    1.203811
      4          6           0        4.733273    1.738059    1.118752
      5          6           0        5.119497    2.252714    2.510425
      6          6           0        5.803715    3.627028    2.511911
      7          6           0        7.076865    3.692725    1.670458
      8          9           0        6.736013    3.544050    0.358731
      9          9           0        7.867027    2.629451    1.982224
     10          6           0        7.853532    5.011694    1.865674
     11          9           0        8.959797    5.020477    1.082339
     12          9           0        8.265510    5.114123    3.153950
     13          8           0        7.066935    6.135086    1.539791
     14          6           0        7.707792    7.298633    1.981708
     15          9           0        7.580611    7.419025    3.318170
     16          9           0        7.093126    8.356041    1.409637
     17          9           0        9.008274    7.329281    1.640734
     18          6           0        2.517753    0.728849    1.265999
     19          8           0        2.008520    1.850916    1.256413
     20          7           0        1.752905   -0.415013    1.333223
     21          6           0        0.294391   -0.277083    1.333169
     22          6           0       -0.287335   -0.320013   -0.088386
     23          7           0       -1.739862   -0.135263   -0.100255
     24          6           0       -2.239869    1.140419   -0.240832
     25          8           0       -1.499542    2.119467   -0.347797
     26          7           0       -3.613120    1.262597   -0.269920
     27          6           0       -4.183677    2.590153   -0.498976
     28          6           0       -4.278007    2.912280   -1.995078
     29          6           0       -4.588079    4.382409   -2.304824
     30          6           0       -5.939109    4.862387   -1.780294
     31          9           0       -5.921164    4.797205   -0.423226
     32          9           0       -6.908730    4.004748   -2.195506
     33          6           0       -6.268204    6.301212   -2.251705
     34          9           0       -6.170751    6.338905   -3.614003
     35          9           0       -5.328801    7.180333   -1.814215
     36          8           0       -7.533769    6.841390   -1.966518
     37          6           0       -7.817800    6.766770   -0.600216
     38          9           0       -8.254443    5.531984   -0.294072
     39          9           0       -6.748800    7.075843    0.153019
     40          9           0       -8.801795    7.644952   -0.320038
     41          6           0       -4.467961    0.182275   -0.224587
     42          8           0       -5.672311    0.290452   -0.466022
     43          7           0       -3.895893   -1.031067    0.093015
     44          6           0       -4.777808   -2.183378    0.272321
     45          6           0       -5.014561   -2.928760   -1.045782
     46          6           0       -6.176627   -3.929776   -0.995117
     47          6           0       -5.985801   -5.069502    0.007026
     48          9           0       -5.889936   -4.556471    1.261399
     49          9           0       -4.789231   -5.669080   -0.241025
     50          6           0       -7.130146   -6.114945   -0.058815
     51          9           0       -7.138127   -6.659401   -1.311285
     52          9           0       -6.904541   -7.158066    0.778140
     53          8           0       -8.450493   -5.670296    0.143370
     54          6           0       -8.600674   -5.082377    1.405359
     55          9           0       -8.202212   -3.797219    1.343426
     56          9           0       -9.907697   -5.101306    1.731880
     57          9           0       -7.910005   -5.723907    2.360212
     58          6           0       -2.534270   -1.237070    0.129458
     59          8           0       -2.049204   -2.347541    0.349793
     60          6           0        2.283840   -1.685347    1.274512
     61          8           0        1.566959   -2.682439    1.180280
     62          7           0        3.658311   -1.780170    1.312159
     63          6           0        4.256282   -3.114640    1.321677
     64          6           0        4.323605   -3.763842   -0.069609
     65          6           0        5.237810   -3.016471   -1.043971
     66          6           0        5.272519   -3.609811   -2.452252
     67          9           0        4.009596   -3.579033   -2.964161
     68          9           0        6.003407   -2.752853   -3.229826
     69          6           0        5.867556   -5.028191   -2.558282
     70          9           0        5.086436   -5.919326   -1.900338
     71          9           0        5.911852   -5.416985   -3.857157
     72          8           0        7.175587   -5.087210   -2.037512
     73          6           0        7.543447   -6.423305   -1.849785
     74          9           0        7.189014   -7.207663   -2.881669
     75          9           0        6.996798   -6.887299   -0.709830
     76          9           0        8.886368   -6.471757   -1.717790
     77          1           0        4.206673    2.523533    0.563122
     78          1           0        5.631896    1.483176    0.545838
     79          1           0        4.220609    2.323245    3.136903
     80          1           0        5.773799    1.521804    3.002644
     81          1           0        6.045208    3.872556    3.553399
     82          1           0        5.088932    4.377196    2.152791
     83          1           0        0.011252    0.663955    1.820568
     84          1           0       -0.139420   -1.078983    1.942598
     85          1           0       -0.046846   -1.278472   -0.565238
     86          1           0        0.184255    0.454660   -0.704220
     87          1           0       -5.177466    2.632520   -0.040684
     88          1           0       -3.560455    3.336845    0.006614
     89          1           0       -5.032597    2.268630   -2.463839
     90          1           0       -3.326246    2.664383   -2.481762
     91          1           0       -4.561697    4.497921   -3.394845
     92          1           0       -3.792039    5.011297   -1.889247
     93          1           0       -4.330147   -2.855695    1.011587
     94          1           0       -5.734666   -1.842701    0.685571
     95          1           0       -5.234236   -2.204142   -1.840179
     96          1           0       -4.094302   -3.441290   -1.350160
     97          1           0       -6.287996   -4.353133   -2.000517
     98          1           0       -7.098441   -3.382837   -0.772574
     99          1           0        5.259844   -3.077155    1.759203
    100          1           0        3.653978   -3.753861    1.978549
    101          1           0        3.316607   -3.835073   -0.495882
    102          1           0        4.688872   -4.787293    0.065384
    103          1           0        6.256353   -2.962195   -0.641878
    104          1           0        4.888154   -1.982117   -1.142755
 ---------------------------------------------------------------------

 SCF Done:  E(RCAM-B3LYP) =  -5111.21092884     A.U. after   13 cycles

 Alpha  occ. eigenvalues --  -24.83686 -24.83491 -24.83389 -24.83383 -24.83266
 Alpha  occ. eigenvalues --  -24.83170 -24.83094 -24.82898 -24.82859 -24.82829
 Alpha  occ. eigenvalues --  -24.82816 -24.82805 -24.82731 -24.82662 -24.81967
 Alpha  occ. eigenvalues --  -24.81908 -24.81789 -24.81739 -24.81655 -24.81484
 Alpha  occ. eigenvalues --  -24.81070 -24.81064 -24.80704 -24.80702 -24.80700
 Alpha  occ. eigenvalues --  -24.80600 -24.80414 -24.79822 -19.32533 -19.32382
 Alpha  occ. eigenvalues --  -19.32321 -19.32227 -19.22323 -19.22267 -19.22234
 Alpha  occ. eigenvalues --  -19.22187 -19.22157 -19.22079 -14.49351 -14.49246
 Alpha  occ. eigenvalues --  -14.49067 -14.48974 -14.48806 -14.48768 -10.59384
 Alpha  occ. eigenvalues --  -10.59128 -10.59120 -10.59063 -10.52543 -10.52484
 Alpha  occ. eigenvalues --  -10.52427 -10.52404 -10.46456 -10.46381 -10.46162
 Alpha  occ. eigenvalues --  -10.45939 -10.43554 -10.43515 -10.43503 -10.43418
 Alpha  occ. eigenvalues --  -10.43349 -10.43321 -10.31939 -10.31906 -10.31417
 Alpha  occ. eigenvalues --  -10.31067 -10.31046 -10.30978 -10.28859 -10.28778
 Alpha  occ. eigenvalues --  -10.28731 -10.28408 -10.27776 -10.27738 -10.27662
 Alpha  occ. eigenvalues --  -10.27513  -1.42976  -1.42747  -1.42681  -1.42637
 Alpha  occ. eigenvalues --   -1.38849  -1.38774  -1.38389  -1.38377  -1.36198
 Alpha  occ. eigenvalues --   -1.36004  -1.35723  -1.35187  -1.33548  -1.33245
 Alpha  occ. eigenvalues --   -1.33239  -1.33197  -1.32884  -1.32535  -1.32389
 Alpha  occ. eigenvalues --   -1.32352  -1.31610  -1.31515  -1.31022  -1.30790
 Alpha  occ. eigenvalues --   -1.29896  -1.29866  -1.29714  -1.29023  -1.20562
 Alpha  occ. eigenvalues --   -1.20467  -1.20442  -1.20427  -1.20334  -1.20157
 Alpha  occ. eigenvalues --   -1.15651  -1.15583  -1.15444  -1.15413  -1.07165
 Alpha  occ. eigenvalues --   -1.07007  -1.05017  -1.04490  -1.04313  -1.04142
 Alpha  occ. eigenvalues --   -0.91887  -0.91636  -0.91574  -0.91288  -0.88752
 Alpha  occ. eigenvalues --   -0.87901  -0.87325  -0.86926  -0.86561  -0.83666
 Alpha  occ. eigenvalues --   -0.83023  -0.82919  -0.82199  -0.80248  -0.79814
 Alpha  occ. eigenvalues --   -0.79465  -0.79289  -0.79145  -0.76522  -0.76188
 Alpha  occ. eigenvalues --   -0.75948  -0.75533  -0.74427  -0.73920  -0.73879
 Alpha  occ. eigenvalues --   -0.72639  -0.71912  -0.71567  -0.71433  -0.71330
 Alpha  occ. eigenvalues --   -0.71137  -0.70977  -0.70816  -0.70701  -0.70590
 Alpha  occ. eigenvalues --   -0.70462  -0.70210  -0.70114  -0.69958  -0.69864
 Alpha  occ. eigenvalues --   -0.69631  -0.69292  -0.69082  -0.68803  -0.67304
 Alpha  occ. eigenvalues --   -0.66991  -0.66865  -0.66778  -0.66093  -0.65919
 Alpha  occ. eigenvalues --   -0.65870  -0.65625  -0.63856  -0.63819  -0.63541
 Alpha  occ. eigenvalues --   -0.63311  -0.62802  -0.62089  -0.61347  -0.61046
 Alpha  occ. eigenvalues --   -0.60928  -0.60808  -0.60366  -0.59966  -0.59931
 Alpha  occ. eigenvalues --   -0.59861  -0.59527  -0.59358  -0.57414  -0.57291
 Alpha  occ. eigenvalues --   -0.57189  -0.57090  -0.56769  -0.56612  -0.56512
 Alpha  occ. eigenvalues --   -0.56283  -0.56248  -0.56191  -0.55708  -0.55453
 Alpha  occ. eigenvalues --   -0.55381  -0.55270  -0.55119  -0.54999  -0.54650
 Alpha  occ. eigenvalues --   -0.54352  -0.54249  -0.54086  -0.54002  -0.53957
 Alpha  occ. eigenvalues --   -0.53945  -0.53816  -0.53701  -0.53429  -0.53265
 Alpha  occ. eigenvalues --   -0.53127  -0.53063  -0.52943  -0.52816  -0.52673
 Alpha  occ. eigenvalues --   -0.52579  -0.52493  -0.52346  -0.52221  -0.52047
 Alpha  occ. eigenvalues --   -0.51887  -0.51791  -0.51526  -0.51481  -0.51346
 Alpha  occ. eigenvalues --   -0.51287  -0.51199  -0.50973  -0.50809  -0.50750
 Alpha  occ. eigenvalues --   -0.50523  -0.50303  -0.50278  -0.50251  -0.50214
 Alpha  occ. eigenvalues --   -0.50100  -0.49962  -0.49960  -0.49841  -0.49771
 Alpha  occ. eigenvalues --   -0.49608  -0.49506  -0.49417  -0.49387  -0.49284
 Alpha  occ. eigenvalues --   -0.49143  -0.49049  -0.48820  -0.48758  -0.48719
 Alpha  occ. eigenvalues --   -0.48242  -0.48206  -0.48091  -0.47888  -0.47683
 Alpha  occ. eigenvalues --   -0.47557  -0.47368  -0.47293  -0.46716  -0.46339
 Alpha  occ. eigenvalues --   -0.46144  -0.46002  -0.45828  -0.45301  -0.45204
 Alpha  occ. eigenvalues --   -0.44908  -0.44813  -0.44440  -0.44230  -0.43825
 Alpha  occ. eigenvalues --   -0.42978  -0.42565  -0.42186  -0.42142  -0.41971
 Alpha  occ. eigenvalues --   -0.41950  -0.41353  -0.40596  -0.40490  -0.40439
 Alpha  occ. eigenvalues --   -0.38367  -0.38257  -0.38213  -0.38119  -0.36741
 Alpha  occ. eigenvalues --   -0.35761  -0.35465  -0.34791  -0.34554  -0.34430
 Alpha  occ. eigenvalues --   -0.34190  -0.34104
 Alpha virt. eigenvalues --    0.02903   0.03123   0.03318   0.03375   0.10855
 Alpha virt. eigenvalues --    0.11037   0.11120   0.11190   0.11679   0.12044
 Alpha virt. eigenvalues --    0.12279   0.12719   0.13591   0.14040   0.14735

 Mulliken charges:
               1
     1  O   -0.537542
     2  C    0.823783
     3  N   -0.573961
     4  C   -0.058473
     5  C   -0.203069
     6  C   -0.265824
     7  C    0.546680
     8  F   -0.280450
     9  F   -0.281002
    10  C    0.758261
    11  F   -0.264053
    12  F   -0.263752
    13  O   -0.510960
    14  C    0.987259
    15  F   -0.247927
    16  F   -0.247962
    17  F   -0.241624
    18  C    0.824595
    19  O   -0.532520
    20  N   -0.574446
    21  C   -0.053531
    22  C   -0.052689
    23  N   -0.574111
    24  C    0.823394
    25  O   -0.534380
    26  N   -0.570249
    27  C   -0.056763
    28  C   -0.207338
    29  C   -0.261735
    30  C    0.549971
    31  F   -0.280743
    32  F   -0.282701
    33  C    0.744025
    34  F   -0.271565
    35  F   -0.260870
    36  O   -0.494871
    37  C    0.977770
    38  F   -0.243938
    39  F   -0.244061
    40  F   -0.245302
    41  C    0.818972
    42  O   -0.533792
    43  N   -0.570334
    44  C   -0.056874
    45  C   -0.205549
    46  C   -0.262913
    47  C    0.546549
    48  F   -0.276303
    49  F   -0.280613
    50  C    0.731531
    51  F   -0.269746
    52  F   -0.259470
    53  O   -0.493364
    54  C    0.982011
    55  F   -0.245244
    56  F   -0.241927
    57  F   -0.238320
    58  C    0.820962
    59  O   -0.529140
    60  C    0.824149
    61  O   -0.526372
    62  N   -0.562118
    63  C   -0.071201
    64  C   -0.213120
    65  C   -0.254114
    66  C    0.541986
    67  F   -0.281551
    68  F   -0.289132
    69  C    0.761873
    70  F   -0.260020
    71  F   -0.265576
    72  O   -0.512967
    73  C    0.989415
    74  F   -0.242289
    75  F   -0.248494
    76  F   -0.247269
    77  H    0.150048
    78  H    0.152442
    79  H    0.129650
    80  H    0.135801
    81  H    0.145884
    82  H    0.151983
    83  H    0.161650
    84  H    0.162093
    85  H    0.162486
    86  H    0.159282
    87  H    0.152938
    88  H    0.148484
    89  H    0.135850
    90  H    0.131061
    91  H    0.149806
    92  H    0.149496
    93  H    0.154568
    94  H    0.145409
    95  H    0.130855
    96  H    0.136869
    97  H    0.148972
    98  H    0.143830
    99  H    0.157842
   100  H    0.151950
   101  H    0.137652
   102  H    0.128739
   103  H    0.149050
   104  H    0.138349
 Sum of Mulliken charges =   0.00000

 Dipole moment (field-independent basis, Debye):
    X=             -0.2741    Y=              1.0368    Z=              1.7017  Tot=              2.0114
 Quadrupole moment (field-independent basis, Debye-Ang):
   XX=           -463.6718   YY=           -454.8579   ZZ=           -404.4926
   XY=              0.8117   XZ=             18.5514   YZ=              0.4138

 Normal termination of Gaussian 09 at Thu Jan 30 16:34:29 2025.
