 Gaussian 09, Revision D.01,
 Gaussian 09:  ES64L-G09RevD.01 24-Apr-2013

 ----------------------------------------------------------------------
 #p CAM-B3LYP/6-31G(d,p) opt SCRF=(PCM,Solvent=Generic,Read) NoSymm out
 =wfn
 ----------------------------------------------------------------------

 ------------
 Title S1_neu
 ------------
 Symbolic Z-matrix:
 Charge =  0 Multiplicity = 1

 SCF Done:  E(RCAM-B3LYP) =  -1976.96012886     A.U. after   12 cycles
 SCF Done:  E(RCAM-B3LYP) =  -1976.97324781     A.U. after   11 cycles
 SCF Done:  E(RCAM-B3LYP) =  -1976.98484445     A.U. after   10 cycles
 SCF Done:  E(RCAM-B3LYP) =  -1976.98772732     A.U. after   10 cycles
 SCF Done:  E(RCAM-B3LYP) =  -1976.98960482     A.U. after   10 cycles
 SCF Done:  E(RCAM-B3LYP) =  -1976.98929724     A.U. after   10 cycles
 SCF Done:  E(RCAM-B3LYP) =  -1976.99057362     A.U. after    8 cycles
 SCF Done:  E(RCAM-B3LYP) =  -1976.99096237     A.U. after   10 cycles
 SCF Done:  E(RCAM-B3LYP) =  -1976.99153483     A.U. after    9 cycles
 SCF Done:  E(RCAM-B3LYP) =  -1976.99167276     A.U. after    9 cycles
 SCF Done:  E(RCAM-B3LYP) =  -1976.99206029     A.U. after    9 cycles
 SCF Done:  E(RCAM-B3LYP) =  -1976.99215312     A.U. after    9 cycles
 SCF Done:  E(RCAM-B3LYP) =  -1976.99207686     A.U. after    9 cycles
 SCF Done:  E(RCAM-B3LYP) =  -1976.99216234     A.U. after    9 cycles
 SCF Done:  E(RCAM-B3LYP) =  -1976.99218324     A.U. after    9 cycles
 SCF Done:  E(RCAM-B3LYP) =  -1976.99218907     A.U. after    8 cycles
 SCF Done:  E(RCAM-B3LYP) =  -1976.99219192     A.U. after    8 cycles
 SCF Done:  E(RCAM-B3LYP) =  -1976.99219310     A.U. after    7 cycles
 SCF Done:  E(RCAM-B3LYP) =  -1976.99219334     A.U. after    6 cycles
 SCF Done:  E(RCAM-B3LYP) =  -1976.99219338     A.U. after    6 cycles
 Optimization completed.
    -- Stationary point found.

                          Input orientation:
 ---------------------------------------------------------------------
 Center     Atomic      Atomic             Coordinates (Angstroms)
 Number     Number       Type             X           Y           Z
 ---------------------------------------------------------------------
      1          9           0       -0.009488   -0.533016   -1.310705
      2          6           0        0.527402    0.314841   -0.374169
      3          6           0        1.887751   -0.246194    0.104887
      4          9           0        2.879289    0.423564   -0.523119
      5          6           0        2.114915   -1.740944   -0.214678
      6          9           0        1.124078   -2.487330    0.268734
      7          9           0        2.207990   -1.924517   -1.527915
      8          9           0        3.255629   -2.120413    0.355415
      9          9           0        2.038286   -0.087198    1.429414
     10          6           0       -0.576631    0.634646    0.662155
     11          8           0       -1.490575    1.418935   -0.033636
     12          6           0       -0.877789    2.153348   -1.038935
     13          9           0       -0.979038    3.456542   -0.784490
     14          9           0       -1.484814    1.901319   -2.198329
     15          6           0        0.602305    1.688865   -1.070540
     16          9           0        1.350133    2.547183   -0.360232
     17          9           0        1.065848    1.598633   -2.316539
     18          6           0       -1.337440   -0.499599    1.379448
     19          9           0       -0.426356   -1.242782    2.038604
     20          6           0       -2.226952   -1.463038    0.562889
     21          9           0       -2.943418   -2.182294    1.425555
     22          9           0       -1.491060   -2.293948   -0.169547
     23          9           0       -3.055526   -0.793600   -0.232281
     24          9           0       -2.144242    0.101732    2.272679
     25          9           0       -0.010294    1.375267    1.655335
 ---------------------------------------------------------------------

 Alpha  occ. eigenvalues --  -24.83846 -24.83743 -24.83636 -24.83604 -24.83541
 Alpha  occ. eigenvalues --  -24.83504 -24.83483 -24.83458 -24.83458 -24.83391
 Alpha  occ. eigenvalues --  -24.83373 -24.83168 -24.83093 -24.83028 -24.83019
 Alpha  occ. eigenvalues --  -24.82626 -19.32323 -10.54719 -10.54693 -10.52778
 Alpha  occ. eigenvalues --  -10.49574 -10.49101 -10.49016 -10.47923 -10.43501
 Alpha  occ. eigenvalues --   -1.43374  -1.43137  -1.41386  -1.39393  -1.39199
 Alpha  occ. eigenvalues --   -1.38567  -1.36124  -1.35460  -1.34183  -1.33881
 Alpha  occ. eigenvalues --   -1.33673  -1.33457  -1.33326  -1.32727  -1.32544
 Alpha  occ. eigenvalues --   -1.32463  -1.22594  -0.95762  -0.92391  -0.89143
 Alpha  occ. eigenvalues --   -0.85985  -0.81411  -0.78635  -0.76609  -0.75737
 Alpha  occ. eigenvalues --   -0.73524  -0.71743  -0.71264  -0.70727  -0.70541
 Alpha  occ. eigenvalues --   -0.70067  -0.69877  -0.69444  -0.68539  -0.67839
 Alpha  occ. eigenvalues --   -0.66309  -0.66194  -0.66019  -0.65705  -0.64911
 Alpha  occ. eigenvalues --   -0.63412  -0.58557  -0.58288  -0.57849  -0.57144
 Alpha  occ. eigenvalues --   -0.56967  -0.56361  -0.56203  -0.56200  -0.55763
 Alpha  occ. eigenvalues --   -0.55062  -0.55010  -0.54910  -0.54546  -0.54091
 Alpha  occ. eigenvalues --   -0.53808  -0.53391  -0.52895  -0.52495  -0.52232
 Alpha  occ. eigenvalues --   -0.51802  -0.51708  -0.51486  -0.51112  -0.50982
 Alpha  occ. eigenvalues --   -0.50455  -0.50121  -0.50057  -0.49905  -0.48927
 Alpha  occ. eigenvalues --   -0.47845  -0.45851  -0.44547  -0.43607  -0.41899
 Alpha virt. eigenvalues --    0.04125   0.07981   0.09195   0.11509   0.13504
 Alpha virt. eigenvalues --    0.15832   0.16928   0.18177   0.21379   0.21946
 Alpha virt. eigenvalues --    0.24412   0.24955   0.25826   0.26090   0.26703

 Mulliken charges:
               1
     1  F   -0.289762
     2  C    0.138507
     3  C    0.521640
     4  F   -0.264982
     5  C    0.780389
     6  F   -0.238893
     7  F   -0.236456
     8  F   -0.238908
     9  F   -0.250884
    10  C    0.502140
    11  O   -0.502430
    12  C    0.779728
    13  F   -0.239442
    14  F   -0.238081
    15  C    0.518095
    16  F   -0.256571
    17  F   -0.253227
    18  C    0.507051
    19  F   -0.265919
    20  C    0.764030
    21  F   -0.239681
    22  F   -0.233395
    23  F   -0.228793
    24  F   -0.259889
    25  F   -0.274266
 Sum of Mulliken charges =   0.00000

 Dipole moment (field-independent basis, Debye):
    X=              0.2514    Y=             -0.1867    Z=             -0.2781  Tot=              0.4188
 Quadrupole moment (field-independent basis, Debye-Ang):
   XX=           -130.6307   YY=           -130.0153   ZZ=           -130.7920
   XY=              0.2530   XZ=             -0.0558   YZ=             -0.6172

 Normal termination of Gaussian 09 at Wed Feb  5 01:31:21 2025.
