 Gaussian 09, Revision D.01,
 Gaussian 09:  ES64L-G09RevD.01 24-Apr-2013

 ----------------------------------------------------------------------
 #p CAM-B3LYP/6-31G(d,p) SCRF=(PCM,Solvent=Generic,Read) NoSymm out=wfn
 ----------------------------------------------------------------------

 --------------------
 Title A1445123340_p1
 --------------------
 Symbolic Z-matrix:
 Charge =  1 Multiplicity = 2

                          Input orientation:
 ---------------------------------------------------------------------
 Center     Atomic      Atomic             Coordinates (Angstroms)
 Number     Number       Type             X           Y           Z
 ---------------------------------------------------------------------
      1          6           0       -5.067800   -0.076806   -1.759646
      2          6           0       -4.775369    0.744835   -0.513743
      3          6           0       -3.282797    0.873057   -0.205009
      4          6           0       -2.624779   -0.460782    0.165991
      5          7           0       -1.223521   -0.286739    0.552010
      6          6           0       -0.947400    0.082693    1.850049
      7          8           0       -1.818304    0.136807    2.718732
      8          7           0        0.366446    0.408880    2.104641
      9          6           0        0.710103    0.892877    3.432217
     10          6           0        1.384245    0.192559    1.205389
     11          8           0        2.549680    0.450865    1.495492
     12          7           0        1.050523   -0.336450   -0.008520
     13          6           0        2.051168   -0.489642   -1.058489
     14          9           0        1.597953   -1.463224   -1.915949
     15          9           0        2.048350    0.654043   -1.805755
     16          6           0        3.537259   -0.879778   -0.771031
     17          9           0        4.147765   -1.132797   -1.982550
     18          8           0        4.415719    0.039907   -0.124740
     19          6           0        4.473037    1.295040   -0.751614
     20          9           0        3.382568    2.019145   -0.442001
     21          9           0        5.560596    1.949795   -0.299818
     22          9           0        4.569432    1.178139   -2.086212
     23          6           0        3.508644   -2.216061   -0.026290
     24          9           0        2.892978   -3.188357   -0.739595
     25          9           0        4.761170   -2.665087    0.237672
     26          9           0        2.861028   -2.151486    1.159768
     27          6           0       -0.260276   -0.314644   -0.436990
     28          8           0       -0.576269   -0.299634   -1.626191
     29          1           0       -6.139138   -0.050718   -1.983463
     30          1           0       -4.783774   -1.124564   -1.625421
     31          1           0       -4.530853    0.319740   -2.627113
     32          1           0       -5.297965    0.306208    0.344213
     33          1           0       -5.188154    1.750791   -0.655561
     34          1           0       -2.765951    1.320726   -1.062586
     35          1           0       -3.163485    1.579757    0.625741
     36          1           0       -3.169528   -0.925700    0.996160
     37          1           0       -2.670840   -1.157590   -0.678218
     38          1           0       -0.144428    1.372786    3.917732
     39          1           0        1.531709    1.613776    3.379139
     40          1           0        1.030258    0.037634    4.035787
 ---------------------------------------------------------------------

 SCF Done:  E(UCAM-B3LYP) =  -1827.36666123     A.U. after   36 cycles

 Alpha  occ. eigenvalues --  -24.86715 -24.86230 -24.86163 -24.85562 -24.85023
 Alpha  occ. eigenvalues --  -24.85015 -24.84923 -24.84889 -24.84850 -19.35793
 Alpha  occ. eigenvalues --  -19.34673 -19.32007 -19.29432 -14.66029 -14.59137
 Alpha  occ. eigenvalues --  -14.57389 -10.61203 -10.57825 -10.57647 -10.54615
 Alpha  occ. eigenvalues --  -10.52420 -10.52165 -10.51086 -10.40345 -10.35294
 Alpha  occ. eigenvalues --  -10.33793 -10.30531 -10.27952  -1.44763  -1.44134
 Alpha  occ. eigenvalues --   -1.42521  -1.37382  -1.35725  -1.35141  -1.34806
 Alpha  occ. eigenvalues --   -1.34434  -1.34227  -1.31443  -1.26175  -1.24532
 Alpha  occ. eigenvalues --   -1.22292  -1.18656  -1.15153  -1.13143  -0.97584
 Alpha  occ. eigenvalues --   -0.96215  -0.90877  -0.90519  -0.89329  -0.85057
 Alpha  occ. eigenvalues --   -0.83251  -0.82907  -0.81005  -0.80249  -0.78397
 Alpha  occ. eigenvalues --   -0.75905  -0.74451  -0.73083  -0.72457  -0.72138
 Alpha  occ. eigenvalues --   -0.71258  -0.70566  -0.69770  -0.69362  -0.69069
 Alpha  occ. eigenvalues --   -0.67633  -0.67365  -0.64555  -0.62951  -0.62849
 Alpha  occ. eigenvalues --   -0.62507  -0.61769  -0.61332  -0.60006  -0.59876
 Alpha  occ. eigenvalues --   -0.59157  -0.58955  -0.58326  -0.58129  -0.57410
 Alpha  occ. eigenvalues --   -0.56758  -0.56440  -0.56258  -0.55836  -0.55052
 Alpha  occ. eigenvalues --   -0.54443  -0.54319  -0.53941  -0.53668  -0.53390
 Alpha  occ. eigenvalues --   -0.53030  -0.52928  -0.52392  -0.52264  -0.51805
 Alpha  occ. eigenvalues --   -0.51209  -0.51042  -0.49934  -0.49651  -0.48554
 Alpha  occ. eigenvalues --   -0.48001  -0.46784  -0.46075  -0.45527  -0.44733
 Alpha  occ. eigenvalues --   -0.44241  -0.43715  -0.42548  -0.42191
 Alpha virt. eigenvalues --   -0.07595  -0.05312   0.02241   0.02869   0.07183
 Alpha virt. eigenvalues --    0.07547   0.09253   0.10889   0.11239   0.11685
 Alpha virt. eigenvalues --    0.13046   0.13590   0.14096   0.15268   0.16212

  Beta  occ. eigenvalues --  -24.86698 -24.86229 -24.86164 -24.85562 -24.85023
  Beta  occ. eigenvalues --  -24.85014 -24.84924 -24.84889 -24.84850 -19.35084
  Beta  occ. eigenvalues --  -19.34673 -19.31739 -19.29335 -14.64824 -14.59174
  Beta  occ. eigenvalues --  -14.57256 -10.61203 -10.57825 -10.57647 -10.54837
  Beta  occ. eigenvalues --  -10.52563 -10.52164 -10.51124 -10.40287 -10.35291
  Beta  occ. eigenvalues --  -10.33612 -10.30500 -10.27947  -1.44761  -1.44133
  Beta  occ. eigenvalues --   -1.42507  -1.37381  -1.35711  -1.35139  -1.34804
  Beta  occ. eigenvalues --   -1.34433  -1.34225  -1.30470  -1.25357  -1.24174
  Beta  occ. eigenvalues --   -1.22279  -1.17032  -1.14617  -1.12722  -0.97288
  Beta  occ. eigenvalues --   -0.95867  -0.90622  -0.90299  -0.89159  -0.84873
  Beta  occ. eigenvalues --   -0.82997  -0.82803  -0.80874  -0.79957  -0.78180
  Beta  occ. eigenvalues --   -0.75780  -0.74423  -0.72968  -0.72126  -0.71278
  Beta  occ. eigenvalues --   -0.71169  -0.70412  -0.69746  -0.69026  -0.68543
  Beta  occ. eigenvalues --   -0.67358  -0.66841  -0.63807  -0.62713  -0.62371
  Beta  occ. eigenvalues --   -0.61682  -0.61102  -0.60187  -0.59904  -0.59694
  Beta  occ. eigenvalues --   -0.58976  -0.58890  -0.58240  -0.57901  -0.57302
  Beta  occ. eigenvalues --   -0.56670  -0.56344  -0.55804  -0.55418  -0.54794
  Beta  occ. eigenvalues --   -0.54359  -0.53981  -0.53891  -0.53378  -0.52972
  Beta  occ. eigenvalues --   -0.52778  -0.52417  -0.52238  -0.51823  -0.51790
  Beta  occ. eigenvalues --   -0.51161  -0.51036  -0.49295  -0.48837  -0.47633
  Beta  occ. eigenvalues --   -0.46428  -0.45680  -0.44943  -0.44518  -0.44033
  Beta  occ. eigenvalues --   -0.43640  -0.41949  -0.41202
  Beta virt. eigenvalues --   -0.28220  -0.06574  -0.04225   0.02288   0.03494
  Beta virt. eigenvalues --    0.07472   0.07881   0.09310   0.11146   0.11333
  Beta virt. eigenvalues --    0.11810   0.13119   0.13792   0.14106   0.15352

 Mulliken charges and spin densities:
               1          2
     1  C   -0.333985   0.002523
     2  C   -0.200543   0.017016
     3  C   -0.210031   0.095951
     4  C   -0.099794   0.023424
     5  N   -0.443908   0.546517
     6  C    0.860592  -0.083886
     7  O   -0.426887   0.110121
     8  N   -0.563530   0.062971
     9  C   -0.200878  -0.000555
    10  C    0.872169  -0.020787
    11  O   -0.465764   0.038490
    12  N   -0.623382  -0.008836
    13  C    0.776303  -0.001545
    14  F   -0.262981   0.003631
    15  F   -0.252412  -0.000088
    16  C    0.416225   0.000011
    17  F   -0.266480  -0.000029
    18  O   -0.484647   0.000115
    19  C    1.003476  -0.000008
    20  F   -0.248696   0.000226
    21  F   -0.237194   0.000013
    22  F   -0.242790   0.000009
    23  C    0.810476  -0.000008
    24  F   -0.240857   0.000066
    25  F   -0.243010  -0.000002
    26  F   -0.242247   0.000090
    27  C    0.884142  -0.129115
    28  O   -0.354043   0.277118
    29  H    0.135984   0.002679
    30  H    0.118436   0.003376
    31  H    0.127358  -0.000206
    32  H    0.136369   0.001142
    33  H    0.155116   0.019988
    34  H    0.163850  -0.001001
    35  H    0.161575  -0.003219
    36  H    0.228248   0.017800
    37  H    0.218725   0.013693
    38  H    0.188565   0.000795
    39  H    0.193241   0.002295
    40  H    0.193206   0.009224
 Sum of Mulliken charges =   1.00000   1.00000

 Dipole moment (field-independent basis, Debye):
    X=             -7.9670    Y=              0.5660    Z=              3.9812  Tot=              8.9243
 Quadrupole moment (field-independent basis, Debye-Ang):
   XX=           -125.8715   YY=           -145.2869   ZZ=           -141.8433
   XY=             -0.6099   XZ=              6.2520   YZ=              2.1957

 Normal termination of Gaussian 09 at Sun Mar  3 17:40:03 2024.
