 Gaussian 09, Revision D.01,
 Gaussian 09:  ES64L-G09RevD.01 24-Apr-2013

 ----------------------------------------------------------------------
 #p CAM-B3LYP/6-31G(d,p) SCRF=(PCM,Solvent=Generic,Read) NoSymm out=wfn
 ----------------------------------------------------------------------

 -------------------
 Title A1445123340_0
 -------------------
 Symbolic Z-matrix:
 Charge =  0 Multiplicity = 1

                          Input orientation:
 ---------------------------------------------------------------------
 Center     Atomic      Atomic             Coordinates (Angstroms)
 Number     Number       Type             X           Y           Z
 ---------------------------------------------------------------------
      1          6           0       -5.067800   -0.076806   -1.759646
      2          6           0       -4.775369    0.744835   -0.513743
      3          6           0       -3.282797    0.873057   -0.205009
      4          6           0       -2.624779   -0.460782    0.165991
      5          7           0       -1.223521   -0.286739    0.552010
      6          6           0       -0.947400    0.082693    1.850049
      7          8           0       -1.818304    0.136807    2.718732
      8          7           0        0.366446    0.408880    2.104641
      9          6           0        0.710103    0.892877    3.432217
     10          6           0        1.384245    0.192559    1.205389
     11          8           0        2.549680    0.450865    1.495492
     12          7           0        1.050523   -0.336450   -0.008520
     13          6           0        2.051168   -0.489642   -1.058489
     14          9           0        1.597953   -1.463224   -1.915949
     15          9           0        2.048350    0.654043   -1.805755
     16          6           0        3.537259   -0.879778   -0.771031
     17          9           0        4.147765   -1.132797   -1.982550
     18          8           0        4.415719    0.039907   -0.124740
     19          6           0        4.473037    1.295040   -0.751614
     20          9           0        3.382568    2.019145   -0.442001
     21          9           0        5.560596    1.949795   -0.299818
     22          9           0        4.569432    1.178139   -2.086212
     23          6           0        3.508644   -2.216061   -0.026290
     24          9           0        2.892978   -3.188357   -0.739595
     25          9           0        4.761170   -2.665087    0.237672
     26          9           0        2.861028   -2.151486    1.159768
     27          6           0       -0.260276   -0.314644   -0.436990
     28          8           0       -0.576269   -0.299634   -1.626191
     29          1           0       -6.139138   -0.050718   -1.983463
     30          1           0       -4.783774   -1.124564   -1.625421
     31          1           0       -4.530853    0.319740   -2.627113
     32          1           0       -5.297965    0.306208    0.344213
     33          1           0       -5.188154    1.750791   -0.655561
     34          1           0       -2.765951    1.320726   -1.062586
     35          1           0       -3.163485    1.579757    0.625741
     36          1           0       -3.169528   -0.925700    0.996160
     37          1           0       -2.670840   -1.157590   -0.678218
     38          1           0       -0.144428    1.372786    3.917732
     39          1           0        1.531709    1.613776    3.379139
     40          1           0        1.030258    0.037634    4.035787
 ---------------------------------------------------------------------

 SCF Done:  E(RCAM-B3LYP) =  -1827.68145876     A.U. after   13 cycles

 Alpha  occ. eigenvalues --  -24.83432 -24.83127 -24.82938 -24.82908 -24.82667
 Alpha  occ. eigenvalues --  -24.82474 -24.82302 -24.82250 -24.82062 -19.31984
 Alpha  occ. eigenvalues --  -19.23350 -19.23046 -19.22607 -14.52289 -14.49742
 Alpha  occ. eigenvalues --  -14.49311 -10.58912 -10.55251 -10.53177 -10.49058
 Alpha  occ. eigenvalues --  -10.44958 -10.44938 -10.43742 -10.30969 -10.30776
 Alpha  occ. eigenvalues --  -10.25989 -10.25566 -10.24486  -1.42370  -1.41673
 Alpha  occ. eigenvalues --   -1.38438  -1.34686  -1.32701  -1.32578  -1.32404
 Alpha  occ. eigenvalues --   -1.32109  -1.31078  -1.21785  -1.19709  -1.16818
 Alpha  occ. eigenvalues --   -1.16307  -1.08758  -1.06413  -1.04863  -0.93262
 Alpha  occ. eigenvalues --   -0.89010  -0.85238  -0.82897  -0.82488  -0.80524
 Alpha  occ. eigenvalues --   -0.78941  -0.76693  -0.75270  -0.73971  -0.72482
 Alpha  occ. eigenvalues --   -0.71600  -0.70778  -0.69757  -0.69343  -0.68633
 Alpha  occ. eigenvalues --   -0.67398  -0.66292  -0.65973  -0.65388  -0.64675
 Alpha  occ. eigenvalues --   -0.61542  -0.59607  -0.59490  -0.57109  -0.56347
 Alpha  occ. eigenvalues --   -0.56217  -0.55945  -0.55629  -0.55428  -0.54778
 Alpha  occ. eigenvalues --   -0.54685  -0.54275  -0.54192  -0.53448  -0.53244
 Alpha  occ. eigenvalues --   -0.52815  -0.52373  -0.51988  -0.51764  -0.51326
 Alpha  occ. eigenvalues --   -0.51034  -0.50735  -0.50211  -0.49957  -0.49807
 Alpha  occ. eigenvalues --   -0.49411  -0.48569  -0.48078  -0.48029  -0.47562
 Alpha  occ. eigenvalues --   -0.47254  -0.46060  -0.45481  -0.43735  -0.43557
 Alpha  occ. eigenvalues --   -0.40753  -0.39648  -0.39564  -0.38966  -0.38518
 Alpha  occ. eigenvalues --   -0.37950  -0.35933  -0.35138  -0.34607
 Alpha virt. eigenvalues --    0.01228   0.02466   0.06049   0.08697   0.12463
 Alpha virt. eigenvalues --    0.13426   0.14393   0.16073   0.16758   0.16775
 Alpha virt. eigenvalues --    0.17840   0.17937   0.18993   0.19976   0.20023

 Mulliken charges:
               1
     1  C   -0.323302
     2  C   -0.187087
     3  C   -0.185079
     4  C   -0.053931
     5  N   -0.574596
     6  C    0.821711
     7  O   -0.525084
     8  N   -0.571754
     9  C   -0.184233
    10  C    0.839218
    11  O   -0.524965
    12  N   -0.620411
    13  C    0.774098
    14  F   -0.272589
    15  F   -0.265459
    16  C    0.414870
    17  F   -0.277763
    18  O   -0.488757
    19  C    0.998951
    20  F   -0.245786
    21  F   -0.243323
    22  F   -0.246938
    23  C    0.805705
    24  F   -0.244599
    25  F   -0.250913
    26  F   -0.240181
    27  C    0.828689
    28  O   -0.496911
    29  H    0.107253
    30  H    0.107400
    31  H    0.111845
    32  H    0.103065
    33  H    0.104951
    34  H    0.116914
    35  H    0.110138
    36  H    0.148757
    37  H    0.146543
    38  H    0.164564
    39  H    0.162178
    40  H    0.156810
 Sum of Mulliken charges =   0.00000

 Dipole moment (field-independent basis, Debye):
    X=             -2.5225    Y=              0.5317    Z=              2.1274  Tot=              3.3424
 Quadrupole moment (field-independent basis, Debye-Ang):
   XX=           -161.2335   YY=           -152.0068   ZZ=           -159.2388
   XY=              0.7962   XZ=              5.1969   YZ=              0.5717

 Normal termination of Gaussian 09 at Sun Mar  3 17:38:50 2024.
