 Gaussian 09, Revision D.01,
 Gaussian 09:  ES64L-G09RevD.01 24-Apr-2013

 ----------------------------------------------------------------------
 #p CAM-B3LYP/6-31G(d,p) SCRF=(PCM,Solvent=Generic,Read) NoSymm out=wfn
 ----------------------------------------------------------------------

 ------------
 Title A0_neu
 ------------
 Symbolic Z-matrix:
 Charge =  0 Multiplicity = 1

                          Input orientation:
 ---------------------------------------------------------------------
 Center     Atomic      Atomic             Coordinates (Angstroms)
 Number     Number       Type             X           Y           Z
 ---------------------------------------------------------------------
      1          9           0       -0.519540   -0.380727   -1.495581
      2          6           0       -0.490062   -0.162729   -0.149953
      3          6           0       -0.762921    1.297667    0.137332
      4          9           0       -0.666994    1.547042    1.471935
      5          6           0       -2.114043    1.789158   -0.377820
      6          9           0       -2.253137    3.124044   -0.194377
      7          9           0       -2.268116    1.547539   -1.697973
      8          9           0       -3.144662    1.198772    0.265477
      9          9           0        0.231623    2.039411   -0.427986
     10          6           0        0.835385   -0.696809    0.410236
     11          8           0        0.625301   -2.080524    0.811430
     12          6           0       -0.715834   -2.381483    0.468695
     13          9           0       -1.196822   -3.317696    1.305992
     14          9           0       -0.687699   -2.908811   -0.774219
     15          6           0       -1.472559   -1.078568    0.513646
     16          9           0       -1.698232   -0.687709    1.790499
     17          9           0       -2.662239   -1.113588   -0.111128
     18          6           0        2.039975   -0.669329   -0.550434
     19          9           0        1.749122   -1.459561   -1.630491
     20          6           0        2.423200    0.733782   -0.985297
     21          8           0        3.066792    1.451246   -0.039456
     22          8           0        2.183650    1.242811   -2.070900
     23          9           0        3.100980   -1.290310    0.057134
     24          9           0        1.132488   -0.060689    1.571108
     25          1           0        3.264345    2.317060   -0.459731
 ---------------------------------------------------------------------

 SCF Done:  E(RCAM-B3LYP) =  -1828.51784565     A.U. after   13 cycles

 Alpha  occ. eigenvalues --  -24.84338 -24.84095 -24.84026 -24.83897 -24.83877
 Alpha  occ. eigenvalues --  -24.83748 -24.83637 -24.83470 -24.83387 -24.83131
 Alpha  occ. eigenvalues --  -24.82702 -24.82154 -24.82088 -19.31914 -19.30367
 Alpha  occ. eigenvalues --  -19.25428 -10.55753 -10.52919 -10.50565 -10.49471
 Alpha  occ. eigenvalues --  -10.49194 -10.48175 -10.44485 -10.43954  -1.42714
 Alpha  occ. eigenvalues --   -1.41001  -1.39455  -1.38628  -1.37713  -1.36328
 Alpha  occ. eigenvalues --   -1.35844  -1.33561  -1.33423  -1.32820  -1.32557
 Alpha  occ. eigenvalues --   -1.32289  -1.30667  -1.22277  -1.20161  -1.12378
 Alpha  occ. eigenvalues --   -0.98353  -0.92110  -0.90819  -0.85273  -0.81007
 Alpha  occ. eigenvalues --   -0.77548  -0.76569  -0.73793  -0.72560  -0.71452
 Alpha  occ. eigenvalues --   -0.70653  -0.70066  -0.69996  -0.68789  -0.68283
 Alpha  occ. eigenvalues --   -0.66923  -0.66404  -0.66042  -0.65849  -0.64631
 Alpha  occ. eigenvalues --   -0.64184  -0.62621  -0.58916  -0.58446  -0.58241
 Alpha  occ. eigenvalues --   -0.57203  -0.56653  -0.56490  -0.56174  -0.55671
 Alpha  occ. eigenvalues --   -0.55296  -0.54682  -0.54417  -0.54208  -0.53952
 Alpha  occ. eigenvalues --   -0.53674  -0.53173  -0.52831  -0.52236  -0.51974
 Alpha  occ. eigenvalues --   -0.51672  -0.51543  -0.51041  -0.50885  -0.50617
 Alpha  occ. eigenvalues --   -0.50076  -0.49676  -0.49633  -0.48765  -0.46203
 Alpha  occ. eigenvalues --   -0.44928  -0.44256  -0.42571  -0.41192  -0.37912
 Alpha virt. eigenvalues --   -0.00455   0.02618   0.06354   0.09385   0.10390
 Alpha virt. eigenvalues --    0.12148   0.12386   0.14240   0.17699   0.20137
 Alpha virt. eigenvalues --    0.22758   0.23794   0.24297   0.24857   0.25623

 Mulliken charges:
               1
     1  F   -0.279313
     2  C    0.133310
     3  C    0.533895
     4  F   -0.257688
     5  C    0.788555
     6  F   -0.246711
     7  F   -0.239227
     8  F   -0.238442
     9  F   -0.265268
    10  C    0.479168
    11  O   -0.504392
    12  C    0.769519
    13  F   -0.244275
    14  F   -0.247367
    15  C    0.539664
    16  F   -0.257158
    17  F   -0.255656
    18  C    0.616834
    19  F   -0.265489
    20  C    0.521515
    21  O   -0.476415
    22  O   -0.444667
    23  F   -0.267367
    24  F   -0.254878
    25  H    0.361851
 Sum of Mulliken charges =   0.00000

 Dipole moment (field-independent basis, Debye):
    X=              0.3966    Y=              1.8000    Z=              0.7754  Tot=              1.9996
 Quadrupole moment (field-independent basis, Debye-Ang):
   XX=           -120.9175   YY=           -123.0256   ZZ=           -132.6891
   XY=              7.0628   XZ=             -0.3270   YZ=              0.6235

 Normal termination of Gaussian 09 at Mon Feb  3 21:36:12 2025.
