 Gaussian 09, Revision D.01,
 Gaussian 09:  ES64L-G09RevD.01 24-Apr-2013

 ----------------------------------------------------------------------
 #p CAM-B3LYP/6-31G(d,p) SCRF=(PCM,Solvent=Generic,Read) NoSymm out=wfn
 ----------------------------------------------------------------------

 --------------
 Title APN0_neu
 --------------
 Symbolic Z-matrix:
 Charge =  0 Multiplicity = 1

                          Input orientation:
 ---------------------------------------------------------------------
 Center     Atomic      Atomic             Coordinates (Angstroms)
 Number     Number       Type             X           Y           Z
 ---------------------------------------------------------------------
      1          9           0        1.835248   -3.908200   -1.344822
      2          6           0        2.025636   -2.916127   -0.456079
      3          9           0        1.867871   -3.442643    0.781034
      4          6           0        3.362101   -2.214980   -0.596436
      5          9           0        3.683281   -2.010787   -1.894685
      6          9           0        4.390407   -2.877006   -0.033762
      7          6           0        3.038084   -0.924340    0.089597
      8          9           0        2.896135   -1.164201    1.428773
      9          6           0        4.070150    0.151435   -0.126618
     10          9           0        3.690561    1.271436    0.552772
     11          6           0        5.438592   -0.320667    0.360991
     12          8           0        6.245299   -0.765728   -0.626839
     13          8           0        5.823129   -0.359236    1.519895
     14          9           0        4.100666    0.522954   -1.435882
     15          6           0        1.663841   -0.661988   -0.522431
     16          9           0        1.816758   -0.280849   -1.817548
     17          6           0        0.810002    0.364704    0.229315
     18          9           0        0.745196    0.030832    1.556013
     19          6           0       -0.613523    0.473383   -0.348659
     20          7           0       -1.540930    0.842322    0.628302
     21          6           0       -2.922704    1.070821    0.466517
     22          6           0       -3.647342    1.421569    1.613392
     23          6           0       -5.025193    1.666651    1.543853
     24          6           0       -5.749053    2.024201    2.728553
     25          7           0       -6.327447    2.312619    3.691656
     26          6           0       -5.689866    1.561857    0.320489
     27          6           0       -4.975492    1.212739   -0.829090
     28          6           0       -5.656201    1.104580   -2.087073
     29          7           0       -6.223140    1.021422   -3.095742
     30          6           0       -3.596633    0.968603   -0.753377
     31          8           0       -0.868236    0.318291   -1.538695
     32          9           0        1.408705    1.587310    0.202345
     33          8           0        0.995007   -1.943142   -0.594528
     34          1           0        7.078725   -1.036340   -0.182994
     35          1           0       -1.168466    0.938779    1.571051
     36          1           0       -3.144635    1.508254    2.576028
     37          1           0       -6.761737    1.751532    0.260921
     38          1           0       -3.074795    0.699940   -1.668702
 ---------------------------------------------------------------------

 SCF Done:  E(RCAM-B3LYP) =  -2075.52174341     A.U. after   14 cycles

 Alpha  occ. eigenvalues --  -24.84489 -24.83991 -24.83819 -24.83767 -24.83388
 Alpha  occ. eigenvalues --  -24.83299 -24.82669 -24.82646 -24.82497 -24.82371
 Alpha  occ. eigenvalues --  -19.32280 -19.30610 -19.25887 -19.25280 -14.49741
 Alpha  occ. eigenvalues --  -14.43288 -14.42988 -10.53163 -10.49635 -10.49537
 Alpha  occ. eigenvalues --  -10.49418 -10.47920 -10.44794 -10.43341 -10.43144
 Alpha  occ. eigenvalues --  -10.36453 -10.34378 -10.34125 -10.32708 -10.32462
 Alpha  occ. eigenvalues --  -10.32393 -10.32103 -10.31622  -1.41209  -1.39390
 Alpha  occ. eigenvalues --   -1.38729  -1.38150  -1.35885  -1.35601  -1.33454
 Alpha  occ. eigenvalues --   -1.32488  -1.32232  -1.31373  -1.22555  -1.20362
 Alpha  occ. eigenvalues --   -1.17121  -1.12754  -1.06926  -1.01530  -1.00635
 Alpha  occ. eigenvalues --   -0.98270  -0.98122  -0.92241  -0.90237  -0.89368
 Alpha  occ. eigenvalues --   -0.88569  -0.83708  -0.78729  -0.78389  -0.77374
 Alpha  occ. eigenvalues --   -0.75636  -0.74179  -0.73461  -0.71504  -0.71182
 Alpha  occ. eigenvalues --   -0.69452  -0.69188  -0.67996  -0.67794  -0.67376
 Alpha  occ. eigenvalues --   -0.66454  -0.66129  -0.65706  -0.64747  -0.63608
 Alpha  occ. eigenvalues --   -0.63162  -0.60689  -0.59026  -0.58976  -0.58716
 Alpha  occ. eigenvalues --   -0.58491  -0.58466  -0.57411  -0.56463  -0.55884
 Alpha  occ. eigenvalues --   -0.55770  -0.55230  -0.55036  -0.54629  -0.54240
 Alpha  occ. eigenvalues --   -0.53957  -0.53811  -0.53588  -0.53391  -0.52771
 Alpha  occ. eigenvalues --   -0.52206  -0.51695  -0.51447  -0.51026  -0.50790
 Alpha  occ. eigenvalues --   -0.50288  -0.50054  -0.49616  -0.49390  -0.48848
 Alpha  occ. eigenvalues --   -0.48470  -0.47170  -0.45772  -0.45264  -0.45153
 Alpha  occ. eigenvalues --   -0.44747  -0.44521  -0.44223  -0.43016  -0.42174
 Alpha  occ. eigenvalues --   -0.41607  -0.41397  -0.39534  -0.38125  -0.36889
 Alpha  occ. eigenvalues --   -0.34268  -0.32088
 Alpha virt. eigenvalues --   -0.03838  -0.03058  -0.00553   0.01303   0.03901
 Alpha virt. eigenvalues --    0.06389   0.08121   0.08475   0.08851   0.10324
 Alpha virt. eigenvalues --    0.10675   0.11500   0.11986   0.13241   0.14409

 Mulliken charges:
               1
     1  F   -0.242944
     2  C    0.778548
     3  F   -0.251981
     4  C    0.539432
     5  F   -0.252709
     6  F   -0.258410
     7  C    0.143186
     8  F   -0.282655
     9  C    0.623455
    10  F   -0.267455
    11  C    0.503950
    12  O   -0.466835
    13  O   -0.438786
    14  F   -0.261092
    15  C    0.498350
    16  F   -0.261229
    17  C    0.556513
    18  F   -0.279898
    19  C    0.595141
    20  N   -0.674067
    21  C    0.336142
    22  C   -0.122250
    23  C    0.103250
    24  C    0.230755
    25  N   -0.455432
    26  C   -0.078226
    27  C    0.090005
    28  C    0.237105
    29  N   -0.455053
    30  C   -0.085144
    31  O   -0.473287
    32  F   -0.258119
    33  O   -0.517765
    34  H    0.362996
    35  H    0.305449
    36  H    0.145254
    37  H    0.156739
    38  H    0.177068
 Sum of Mulliken charges =   0.00000

 Dipole moment (field-independent basis, Debye):
    X=              5.4934    Y=             -0.6764    Z=              1.9864  Tot=              5.8805
 Quadrupole moment (field-independent basis, Debye-Ang):
   XX=           -193.4949   YY=           -179.5687   ZZ=           -209.2450
   XY=              2.0691   XZ=             -8.1211   YZ=             -2.5229

 Normal termination of Gaussian 09 at Mon Feb  3 21:39:41 2025.
