 Gaussian 09, Revision D.01,
 Gaussian 09:  ES64L-G09RevD.01 24-Apr-2013

 ----------------------------------------------------------------------
 #p CAM-B3LYP/6-31G(d,p) SCRF=(PCM,Solvent=Generic,Read) NoSymm out=wfn
 ----------------------------------------------------------------------

 -------------------
 Title A892693590_p1
 -------------------
 Symbolic Z-matrix:
 Charge =  1 Multiplicity = 2

                          Input orientation:
 ---------------------------------------------------------------------
 Center     Atomic      Atomic             Coordinates (Angstroms)
 Number     Number       Type             X           Y           Z
 ---------------------------------------------------------------------
      1          6           0        5.860426   -0.363476   -0.045062
      2          6           0        4.771059    0.115901    0.900893
      3          6           0        3.379442   -0.108836    0.311716
      4          6           0        2.287471    0.377390    1.266378
      5          7           0        0.948057    0.154558    0.732583
      6          6           0        0.462978    1.019243   -0.298396
      7          7           0       -0.964616    1.046427   -0.231729
      8          6           0       -1.670131    2.305079   -0.442368
      9          6           0       -1.782481    3.103886    0.857046
     10          6           0       -2.608932    4.382255    0.711347
     11          6           0       -1.974018    5.410914   -0.211477
     12          6           0       -1.640259   -0.128688    0.017337
     13          8           0       -2.862559   -0.157716    0.117164
     14          7           0       -0.840077   -1.238187    0.177833
     15          6           0       -1.499816   -2.528785    0.245186
     16          9           0       -2.288173   -2.571849    1.357071
     17          9           0       -0.568767   -3.514017    0.431257
     18          6           0       -2.330032   -2.981633   -0.996771
     19          9           0       -3.268861   -2.040267   -1.328187
     20          8           0       -3.144985   -4.154001   -0.835693
     21          6           0       -2.503041   -5.276514   -0.294609
     22          9           0       -1.354842   -5.521438   -0.937299
     23          9           0       -3.311885   -6.341972   -0.449526
     24          9           0       -2.278398   -5.097335    1.014160
     25          6           0       -1.356166   -3.046063   -2.180564
     26          9           0       -0.259848   -3.798174   -1.962684
     27          9           0       -0.900971   -1.808603   -2.509644
     28          9           0       -1.961716   -3.540772   -3.288260
     29          6           0        0.333285   -1.079289    0.887583
     30          8           0        0.818874   -1.936067    1.621264
     31          1           0        5.817038    0.173808   -0.997839
     32          1           0        6.847460   -0.193345    0.396207
     33          1           0        5.759475   -1.434222   -0.249162
     34          1           0        4.862562   -0.417511    1.854190
     35          1           0        4.919259    1.181813    1.109573
     36          1           0        3.295876    0.418652   -0.646361
     37          1           0        3.236573   -1.174941    0.096289
     38          1           0        2.399044    1.447574    1.475401
     39          1           0        2.376863   -0.148068    2.224418
     40          1           0        0.860671    2.028120   -0.149002
     41          1           0        0.771351    0.638563   -1.278372
     42          1           0       -2.673525    2.092486   -0.828691
     43          1           0       -1.135700    2.865994   -1.216514
     44          1           0       -0.781736    3.351850    1.231654
     45          1           0       -2.249755    2.475520    1.625978
     46          1           0       -2.730576    4.832466    1.703775
     47          1           0       -3.614245    4.137899    0.349065
     48          1           0       -0.955640    5.651528    0.109581
     49          1           0       -2.559610    6.335853   -0.201947
     50          1           0       -1.936403    5.053990   -1.244789
 ---------------------------------------------------------------------

 SCF Done:  E(UCAM-B3LYP) =  -1871.24379650     A.U. after   30 cycles

 Alpha  occ. eigenvalues --  -24.86146 -24.85960 -24.85458 -24.85249 -24.85230
 Alpha  occ. eigenvalues --  -24.85089 -24.84959 -24.84849 -24.84754 -19.35197
 Alpha  occ. eigenvalues --  -19.29676 -19.29032 -14.59106 -14.57255 -14.57016
 Alpha  occ. eigenvalues --  -10.61182 -10.57466 -10.56327 -10.51676 -10.50612
 Alpha  occ. eigenvalues --  -10.49814 -10.44522 -10.37074 -10.36328 -10.31303
 Alpha  occ. eigenvalues --  -10.30605 -10.28944 -10.28690 -10.27068 -10.27024
 Alpha  occ. eigenvalues --   -1.45056  -1.43980  -1.41679  -1.37852  -1.35735
 Alpha  occ. eigenvalues --   -1.34905  -1.34707  -1.34424  -1.34211  -1.27122
 Alpha  occ. eigenvalues --   -1.22569  -1.22402  -1.17510  -1.13595  -1.11349
 Alpha  occ. eigenvalues --   -0.96357  -0.94439  -0.93193  -0.91289  -0.88495
 Alpha  occ. eigenvalues --   -0.87233  -0.84371  -0.84048  -0.81917  -0.79537
 Alpha  occ. eigenvalues --   -0.77783  -0.77005  -0.75484  -0.75132  -0.74370
 Alpha  occ. eigenvalues --   -0.72520  -0.72192  -0.71684  -0.71512  -0.70909
 Alpha  occ. eigenvalues --   -0.69795  -0.69626  -0.68743  -0.68236  -0.66384
 Alpha  occ. eigenvalues --   -0.66218  -0.63982  -0.62139  -0.61428  -0.60111
 Alpha  occ. eigenvalues --   -0.60059  -0.59823  -0.59539  -0.59085  -0.58959
 Alpha  occ. eigenvalues --   -0.58858  -0.57918  -0.57879  -0.57727  -0.57151
 Alpha  occ. eigenvalues --   -0.56917  -0.56035  -0.55391  -0.54784  -0.54491
 Alpha  occ. eigenvalues --   -0.54161  -0.53652  -0.53616  -0.53398  -0.52957
 Alpha  occ. eigenvalues --   -0.52228  -0.52020  -0.51922  -0.51662  -0.51165
 Alpha  occ. eigenvalues --   -0.50981  -0.50444  -0.49993  -0.49859  -0.47541
 Alpha  occ. eigenvalues --   -0.46672  -0.46471  -0.45773  -0.45139  -0.44034
 Alpha  occ. eigenvalues --   -0.43605  -0.42908  -0.42840  -0.42542  -0.42364
 Alpha  occ. eigenvalues --   -0.42011  -0.41770  -0.40381
 Alpha virt. eigenvalues --   -0.02672  -0.00900   0.02568   0.06350   0.06628
 Alpha virt. eigenvalues --    0.08465   0.09362   0.10822   0.11351   0.11794
 Alpha virt. eigenvalues --    0.12758   0.13485   0.14303   0.14670   0.15244

  Beta  occ. eigenvalues --  -24.86144 -24.85958 -24.85459 -24.85249 -24.85225
  Beta  occ. eigenvalues --  -24.85081 -24.84959 -24.84849 -24.84754 -19.35197
  Beta  occ. eigenvalues --  -19.29452 -19.28821 -14.58223 -14.57200 -14.56395
  Beta  occ. eigenvalues --  -10.61181 -10.57466 -10.56331 -10.51675 -10.50729
  Beta  occ. eigenvalues --  -10.49912 -10.44552 -10.37077 -10.36324 -10.31214
  Beta  occ. eigenvalues --  -10.30542 -10.28940 -10.28675 -10.27068 -10.27015
  Beta  occ. eigenvalues --   -1.45055  -1.43979  -1.41668  -1.37844  -1.35734
  Beta  occ. eigenvalues --   -1.34901  -1.34700  -1.34421  -1.34208  -1.26608
  Beta  occ. eigenvalues --   -1.22466  -1.22011  -1.16459  -1.13245  -1.09948
  Beta  occ. eigenvalues --   -0.96307  -0.94187  -0.92918  -0.90844  -0.88310
  Beta  occ. eigenvalues --   -0.87108  -0.84163  -0.84044  -0.81738  -0.79312
  Beta  occ. eigenvalues --   -0.77637  -0.76859  -0.75465  -0.74622  -0.74211
  Beta  occ. eigenvalues --   -0.72508  -0.71946  -0.71512  -0.71036  -0.70499
  Beta  occ. eigenvalues --   -0.69733  -0.69329  -0.68662  -0.67612  -0.66324
  Beta  occ. eigenvalues --   -0.65831  -0.63321  -0.61460  -0.61015  -0.59825
  Beta  occ. eigenvalues --   -0.59783  -0.59505  -0.59373  -0.58851  -0.58799
  Beta  occ. eigenvalues --   -0.58257  -0.57872  -0.57780  -0.57422  -0.56802
  Beta  occ. eigenvalues --   -0.56706  -0.55844  -0.55358  -0.54732  -0.54241
  Beta  occ. eigenvalues --   -0.53678  -0.53562  -0.53417  -0.53241  -0.52822
  Beta  occ. eigenvalues --   -0.52130  -0.51974  -0.51850  -0.51544  -0.51145
  Beta  occ. eigenvalues --   -0.50526  -0.50420  -0.49961  -0.49521  -0.47363
  Beta  occ. eigenvalues --   -0.46539  -0.45712  -0.44882  -0.44432  -0.43469
  Beta  occ. eigenvalues --   -0.43256  -0.42794  -0.42564  -0.42404  -0.42141
  Beta  occ. eigenvalues --   -0.41524  -0.36369
  Beta virt. eigenvalues --   -0.24912  -0.01956   0.00001   0.02602   0.06474
  Beta virt. eigenvalues --    0.06722   0.08795   0.09655   0.11145   0.11665
  Beta virt. eigenvalues --    0.11902   0.12888   0.13551   0.14465   0.14796

 Mulliken charges and spin densities:
               1          2
     1  C   -0.326284   0.003315
     2  C   -0.189385   0.002465
     3  C   -0.198399   0.045689
     4  C   -0.097321  -0.010732
     5  N   -0.415654   0.416354
     6  C    0.073977  -0.040156
     7  N   -0.448472   0.292867
     8  C   -0.091484  -0.003272
     9  C   -0.193584   0.028586
    10  C   -0.189555   0.008454
    11  C   -0.330450   0.000139
    12  C    0.827328  -0.055151
    13  O   -0.441784   0.084325
    14  N   -0.628431   0.028024
    15  C    0.764676  -0.001682
    16  F   -0.252175   0.002097
    17  F   -0.257362   0.000624
    18  C    0.427731   0.000756
    19  F   -0.253070   0.000780
    20  O   -0.494974   0.000104
    21  C    0.987927   0.000013
    22  F   -0.239159  -0.000001
    23  F   -0.237530  -0.000007
    24  F   -0.237746   0.000016
    25  C    0.796366  -0.000191
    26  F   -0.232896   0.000015
    27  F   -0.255425   0.000326
    28  F   -0.243928   0.000034
    29  C    0.839457  -0.066375
    30  O   -0.435765   0.091019
    31  H    0.113547  -0.000131
    32  H    0.122911   0.002088
    33  H    0.118612  -0.000132
    34  H    0.124829   0.000106
    35  H    0.116694  -0.000128
    36  H    0.128050  -0.000792
    37  H    0.145065  -0.001781
    38  H    0.175788   0.007024
    39  H    0.202927   0.015475
    40  H    0.232265   0.021969
    41  H    0.281388   0.115158
    42  H    0.187730  -0.000013
    43  H    0.170763   0.009617
    44  H    0.117522  -0.001233
    45  H    0.137864  -0.001346
    46  H    0.127068   0.004547
    47  H    0.122311  -0.000176
    48  H    0.111100  -0.000047
    49  H    0.125853   0.000907
    50  H    0.111082   0.000450
 Sum of Mulliken charges =   1.00000   1.00000

 Dipole moment (field-independent basis, Debye):
    X=              4.7779    Y=              7.9628    Z=             -0.4199  Tot=              9.2957
 Quadrupole moment (field-independent basis, Debye-Ang):
   XX=           -149.8770   YY=           -147.3099   ZZ=           -164.0085
   XY=             -5.0662   XZ=              3.2407   YZ=              3.3117

 Normal termination of Gaussian 09 at Sun Mar  3 18:04:42 2024.
