 Gaussian 09, Revision D.01,
 Gaussian 09:  ES64L-G09RevD.01 24-Apr-2013

 ----------------------------------------------------------------------
 #p CAM-B3LYP/6-31G(d,p) SCRF=(PCM,Solvent=Generic,Read) NoSymm out=wfn
 ----------------------------------------------------------------------

 ------------------
 Title A892693590_0
 ------------------
 Symbolic Z-matrix:
 Charge =  0 Multiplicity = 1

                          Input orientation:
 ---------------------------------------------------------------------
 Center     Atomic      Atomic             Coordinates (Angstroms)
 Number     Number       Type             X           Y           Z
 ---------------------------------------------------------------------
      1          6           0        5.860426   -0.363476   -0.045062
      2          6           0        4.771059    0.115901    0.900893
      3          6           0        3.379442   -0.108836    0.311716
      4          6           0        2.287471    0.377390    1.266378
      5          7           0        0.948057    0.154558    0.732583
      6          6           0        0.462978    1.019243   -0.298396
      7          7           0       -0.964616    1.046427   -0.231729
      8          6           0       -1.670131    2.305079   -0.442368
      9          6           0       -1.782481    3.103886    0.857046
     10          6           0       -2.608932    4.382255    0.711347
     11          6           0       -1.974018    5.410914   -0.211477
     12          6           0       -1.640259   -0.128688    0.017337
     13          8           0       -2.862559   -0.157716    0.117164
     14          7           0       -0.840077   -1.238187    0.177833
     15          6           0       -1.499816   -2.528785    0.245186
     16          9           0       -2.288173   -2.571849    1.357071
     17          9           0       -0.568767   -3.514017    0.431257
     18          6           0       -2.330032   -2.981633   -0.996771
     19          9           0       -3.268861   -2.040267   -1.328187
     20          8           0       -3.144985   -4.154001   -0.835693
     21          6           0       -2.503041   -5.276514   -0.294609
     22          9           0       -1.354842   -5.521438   -0.937299
     23          9           0       -3.311885   -6.341972   -0.449526
     24          9           0       -2.278398   -5.097335    1.014160
     25          6           0       -1.356166   -3.046063   -2.180564
     26          9           0       -0.259848   -3.798174   -1.962684
     27          9           0       -0.900971   -1.808603   -2.509644
     28          9           0       -1.961716   -3.540772   -3.288260
     29          6           0        0.333285   -1.079289    0.887583
     30          8           0        0.818874   -1.936067    1.621264
     31          1           0        5.817038    0.173808   -0.997839
     32          1           0        6.847460   -0.193345    0.396207
     33          1           0        5.759475   -1.434222   -0.249162
     34          1           0        4.862562   -0.417511    1.854190
     35          1           0        4.919259    1.181813    1.109573
     36          1           0        3.295876    0.418652   -0.646361
     37          1           0        3.236573   -1.174941    0.096289
     38          1           0        2.399044    1.447574    1.475401
     39          1           0        2.376863   -0.148068    2.224418
     40          1           0        0.860671    2.028120   -0.149002
     41          1           0        0.771351    0.638563   -1.278372
     42          1           0       -2.673525    2.092486   -0.828691
     43          1           0       -1.135700    2.865994   -1.216514
     44          1           0       -0.781736    3.351850    1.231654
     45          1           0       -2.249755    2.475520    1.625978
     46          1           0       -2.730576    4.832466    1.703775
     47          1           0       -3.614245    4.137899    0.349065
     48          1           0       -0.955640    5.651528    0.109581
     49          1           0       -2.559610    6.335853   -0.201947
     50          1           0       -1.936403    5.053990   -1.244789
 ---------------------------------------------------------------------

 SCF Done:  E(RCAM-B3LYP) =  -1871.52468141     A.U. after   13 cycles

 Alpha  occ. eigenvalues --  -24.83400 -24.83018 -24.82957 -24.82816 -24.82573
 Alpha  occ. eigenvalues --  -24.82439 -24.81881 -24.81681 -24.80795 -19.32549
 Alpha  occ. eigenvalues --  -19.20504 -19.20492 -14.49627 -14.45306 -14.45174
 Alpha  occ. eigenvalues --  -10.59054 -10.54625 -10.51617 -10.48269 -10.42087
 Alpha  occ. eigenvalues --  -10.41916 -10.34667 -10.30216 -10.30098 -10.25809
 Alpha  occ. eigenvalues --  -10.25790 -10.25510 -10.25470 -10.24652 -10.24513
 Alpha  occ. eigenvalues --   -1.42847  -1.41311  -1.37497  -1.34552  -1.33520
 Alpha  occ. eigenvalues --   -1.32631  -1.31981  -1.31843  -1.30365  -1.19851
 Alpha  occ. eigenvalues --   -1.18339  -1.13901  -1.07511  -1.05635  -1.00872
 Alpha  occ. eigenvalues --   -0.92237  -0.88902  -0.88078  -0.84118  -0.82476
 Alpha  occ. eigenvalues --   -0.81521  -0.81304  -0.78998  -0.76110  -0.75161
 Alpha  occ. eigenvalues --   -0.73678  -0.72788  -0.71507  -0.70339  -0.69838
 Alpha  occ. eigenvalues --   -0.68827  -0.68363  -0.67821  -0.66760  -0.66288
 Alpha  occ. eigenvalues --   -0.65516  -0.65102  -0.64857  -0.62782  -0.60786
 Alpha  occ. eigenvalues --   -0.58403  -0.58227  -0.57260  -0.56384  -0.56305
 Alpha  occ. eigenvalues --   -0.55697  -0.55230  -0.54994  -0.54701  -0.54346
 Alpha  occ. eigenvalues --   -0.53896  -0.53737  -0.53228  -0.52748  -0.52321
 Alpha  occ. eigenvalues --   -0.51930  -0.51788  -0.51252  -0.50877  -0.50546
 Alpha  occ. eigenvalues --   -0.50318  -0.49948  -0.49658  -0.49434  -0.49071
 Alpha  occ. eigenvalues --   -0.48601  -0.48476  -0.48117  -0.47951  -0.47608
 Alpha  occ. eigenvalues --   -0.47297  -0.46700  -0.45981  -0.45072  -0.43171
 Alpha  occ. eigenvalues --   -0.42499  -0.42008  -0.41179  -0.40270  -0.39964
 Alpha  occ. eigenvalues --   -0.39474  -0.39241  -0.39097  -0.37383  -0.35147
 Alpha  occ. eigenvalues --   -0.34232  -0.31521  -0.31194
 Alpha virt. eigenvalues --    0.05620   0.06109   0.06935   0.10662   0.12180
 Alpha virt. eigenvalues --    0.13624   0.14007   0.15668   0.16460   0.16931
 Alpha virt. eigenvalues --    0.17348   0.17511   0.18432   0.19100   0.19238

 Mulliken charges:
               1
     1  C   -0.322190
     2  C   -0.182926
     3  C   -0.179628
     4  C   -0.058851
     5  N   -0.513877
     6  C    0.127902
     7  N   -0.509324
     8  C   -0.062457
     9  C   -0.174482
    10  C   -0.185783
    11  C   -0.324557
    12  C    0.785413
    13  O   -0.531239
    14  N   -0.629757
    15  C    0.760075
    16  F   -0.268463
    17  F   -0.269141
    18  C    0.423087
    19  F   -0.255790
    20  O   -0.505226
    21  C    0.983477
    22  F   -0.241198
    23  F   -0.243310
    24  F   -0.238564
    25  C    0.792213
    26  F   -0.237204
    27  F   -0.251643
    28  F   -0.252639
    29  C    0.793923
    30  O   -0.533481
    31  H    0.104787
    32  H    0.104838
    33  H    0.109483
    34  H    0.106450
    35  H    0.098634
    36  H    0.100924
    37  H    0.116499
    38  H    0.120110
    39  H    0.143763
    40  H    0.148674
    41  H    0.140649
    42  H    0.144102
    43  H    0.125241
    44  H    0.097479
    45  H    0.114973
    46  H    0.103183
    47  H    0.105086
    48  H    0.104631
    49  H    0.108875
    50  H    0.107261
 Sum of Mulliken charges =   0.00000

 Dipole moment (field-independent basis, Debye):
    X=              4.2797    Y=              6.5633    Z=             -1.8118  Tot=              8.0421
 Quadrupole moment (field-independent basis, Debye-Ang):
   XX=           -176.0136   YY=           -169.3898   ZZ=           -173.6445
   XY=             -2.8727   XZ=              0.3901   YZ=              3.9211

 Normal termination of Gaussian 09 at Sun Mar  3 18:02:54 2024.
