 Gaussian 09, Revision D.01,
 Gaussian 09:  ES64L-G09RevD.01 24-Apr-2013

 ----------------------------------------------------------------------
 #p CAM-B3LYP/6-31G(d,p) SCRF=(PCM,Solvent=Generic,Read) NoSymm out=wfn
 ----------------------------------------------------------------------

 ---------------
 Title FFKM0_pos
 ---------------
 Symbolic Z-matrix:
 Charge =  1 Multiplicity = 2

                          Input orientation:
 ---------------------------------------------------------------------
 Center     Atomic      Atomic             Coordinates (Angstroms)
 Number     Number       Type             X           Y           Z
 ---------------------------------------------------------------------
      1          9           0        2.354945    0.009116    2.012700
      2          6           0        2.495150   -0.676267    0.865303
      3          9           0        3.461671   -0.122495    0.111209
      4          9           0        2.866270   -1.937385    1.166550
      5          8           0        1.297012   -0.737094    0.140886
      6          6           0        0.694526    0.530377    0.112163
      7          9           0        1.640060    1.486935   -0.062110
      8          9           0        0.140585    0.755590    1.328352
      9          6           0       -0.375922    0.659380   -0.970311
     10          9           0        0.239478    0.692933   -2.196594
     11          9           0       -0.998235    1.869830   -0.852941
     12          6           0       -1.401753   -0.450337   -0.983755
     13          9           0       -0.815983   -1.638349   -1.316401
     14          9           0       -2.300282   -0.202185   -1.989068
     15          6           0       -2.139865   -0.586886    0.331757
     16          9           0       -3.154109   -1.481133    0.239531
     17          9           0       -2.674097    0.582728    0.744389
     18          9           0       -1.329451   -1.034117    1.318340
 ---------------------------------------------------------------------

 SCF Done:  E(UCAM-B3LYP) =  -1463.03489078     A.U. after   25 cycles

 Alpha  occ. eigenvalues --  -24.95928 -24.95679 -24.95256 -24.94909 -24.92878
 Alpha  occ. eigenvalues --  -24.92581 -24.91461 -24.91460 -24.90792 -24.89734
 Alpha  occ. eigenvalues --  -24.88345 -24.88296 -19.43876 -10.65879 -10.65226
 Alpha  occ. eigenvalues --  -10.64830 -10.63726 -10.63101  -1.52052  -1.50298
 Alpha  occ. eigenvalues --   -1.49386  -1.48298  -1.47022  -1.43688  -1.43081
 Alpha  occ. eigenvalues --   -1.41914  -1.40476  -1.39879  -1.38868  -1.37740
 Alpha  occ. eigenvalues --   -1.31031  -1.07497  -0.98841  -0.92294  -0.88144
 Alpha  occ. eigenvalues --   -0.83980  -0.82251  -0.81387  -0.80680  -0.79283
 Alpha  occ. eigenvalues --   -0.77970  -0.77568  -0.75960  -0.75417  -0.74689
 Alpha  occ. eigenvalues --   -0.74376  -0.73733  -0.69496  -0.67759  -0.67158
 Alpha  occ. eigenvalues --   -0.66540  -0.65085  -0.64969  -0.64541  -0.63543
 Alpha  occ. eigenvalues --   -0.63264  -0.62977  -0.61931  -0.61838  -0.61333
 Alpha  occ. eigenvalues --   -0.61119  -0.60293  -0.59994  -0.59009  -0.58657
 Alpha  occ. eigenvalues --   -0.58220  -0.57832  -0.57219  -0.56766  -0.56178
 Alpha  occ. eigenvalues --   -0.55668  -0.54872  -0.54631
 Alpha virt. eigenvalues --   -0.05737  -0.04500   0.03113   0.04029   0.10316
 Alpha virt. eigenvalues --    0.11762   0.13026   0.14612   0.14694   0.16343
 Alpha virt. eigenvalues --    0.17865   0.18105   0.18515   0.19082   0.21725

  Beta  occ. eigenvalues --  -24.95599 -24.95342 -24.94936 -24.94602 -24.92739
  Beta  occ. eigenvalues --  -24.92412 -24.91370 -24.91359 -24.90671 -24.89657
  Beta  occ. eigenvalues --  -24.88328 -24.88266 -19.43471 -10.65889 -10.65118
  Beta  occ. eigenvalues --  -10.64722 -10.63479 -10.62866  -1.51494  -1.49929
  Beta  occ. eigenvalues --   -1.48979  -1.47818  -1.46752  -1.42966  -1.42377
  Beta  occ. eigenvalues --   -1.41510  -1.40219  -1.39598  -1.38734  -1.37675
  Beta  occ. eigenvalues --   -1.30196  -1.06267  -0.97734  -0.90994  -0.87252
  Beta  occ. eigenvalues --   -0.83667  -0.81614  -0.80905  -0.80291  -0.78922
  Beta  occ. eigenvalues --   -0.77613  -0.77166  -0.75588  -0.75060  -0.74425
  Beta  occ. eigenvalues --   -0.74118  -0.73397  -0.69045  -0.67030  -0.66129
  Beta  occ. eigenvalues --   -0.64741  -0.63806  -0.63546  -0.62917  -0.62563
  Beta  occ. eigenvalues --   -0.62458  -0.61881  -0.61606  -0.61126  -0.60876
  Beta  occ. eigenvalues --   -0.60139  -0.59853  -0.59240  -0.58588  -0.58094
  Beta  occ. eigenvalues --   -0.57866  -0.57294  -0.56597  -0.56340  -0.55138
  Beta  occ. eigenvalues --   -0.54717  -0.52152
  Beta virt. eigenvalues --   -0.39767  -0.05251  -0.03847   0.03702   0.04617
  Beta virt. eigenvalues --    0.10858   0.12379   0.13337   0.14894   0.15331
  Beta virt. eigenvalues --    0.16633   0.18150   0.18459   0.18867   0.19380

 Mulliken charges and spin densities:
               1          2
     1  F   -0.211609   0.021094
     2  C    1.020144  -0.006266
     3  F   -0.219338   0.005416
     4  F   -0.214865   0.008737
     5  O   -0.436400   0.145857
     6  C    0.795172   0.036905
     7  F   -0.195201   0.041770
     8  F   -0.190928   0.048992
     9  C    0.539284   0.096151
    10  F   -0.161113   0.095667
    11  F   -0.153541   0.095159
    12  C    0.513523   0.090522
    13  F   -0.153840   0.097870
    14  F   -0.162916   0.090913
    15  C    0.816606   0.040819
    16  F   -0.193464   0.035119
    17  F   -0.194322   0.025618
    18  F   -0.197191   0.029659
 Sum of Mulliken charges =   1.00000   1.00000

 Dipole moment (field-independent basis, Debye):
    X=             -1.7925    Y=              0.0453    Z=             -2.0804  Tot=              2.7465
 Quadrupole moment (field-independent basis, Debye-Ang):
   XX=            -75.6672   YY=            -84.7339   ZZ=            -82.6703
   XY=              0.9715   XZ=              3.8365   YZ=             -0.8817

 Normal termination of Gaussian 09 at Sun Feb  2 04:56:13 2025.
