 Gaussian 09, Revision D.01,
 Gaussian 09:  ES64L-G09RevD.01 24-Apr-2013

 ----------------------------------------------------------------------
 #p CAM-B3LYP/6-31G(d,p) SCRF=(PCM,Solvent=Generic,Read) NoSymm out=wfn
 ----------------------------------------------------------------------

 ---------------
 Title FFKM0_neu
 ---------------
 Symbolic Z-matrix:
 Charge =  0 Multiplicity = 1

                          Input orientation:
 ---------------------------------------------------------------------
 Center     Atomic      Atomic             Coordinates (Angstroms)
 Number     Number       Type             X           Y           Z
 ---------------------------------------------------------------------
      1          9           0        2.354945    0.009116    2.012700
      2          6           0        2.495150   -0.676267    0.865303
      3          9           0        3.461671   -0.122495    0.111209
      4          9           0        2.866270   -1.937385    1.166550
      5          8           0        1.297012   -0.737094    0.140886
      6          6           0        0.694526    0.530377    0.112163
      7          9           0        1.640060    1.486935   -0.062110
      8          9           0        0.140585    0.755590    1.328352
      9          6           0       -0.375922    0.659380   -0.970311
     10          9           0        0.239478    0.692933   -2.196594
     11          9           0       -0.998235    1.869830   -0.852941
     12          6           0       -1.401753   -0.450337   -0.983755
     13          9           0       -0.815983   -1.638349   -1.316401
     14          9           0       -2.300282   -0.202185   -1.989068
     15          6           0       -2.139865   -0.586886    0.331757
     16          9           0       -3.154109   -1.481133    0.239531
     17          9           0       -2.674097    0.582728    0.744389
     18          9           0       -1.329451   -1.034117    1.318340
 ---------------------------------------------------------------------

 SCF Done:  E(RCAM-B3LYP) =  -1463.45624024     A.U. after   11 cycles

 Alpha  occ. eigenvalues --  -24.83869 -24.83803 -24.83717 -24.83698 -24.83608
 Alpha  occ. eigenvalues --  -24.83411 -24.83302 -24.83214 -24.83160 -24.83083
 Alpha  occ. eigenvalues --  -24.83074 -24.83066 -19.33289 -10.59730 -10.55391
 Alpha  occ. eigenvalues --  -10.54424 -10.50060 -10.49919  -1.43396  -1.42344
 Alpha  occ. eigenvalues --   -1.40349  -1.38905  -1.37161  -1.33791  -1.33349
 Alpha  occ. eigenvalues --   -1.33100  -1.32705  -1.32392  -1.31877  -1.31648
 Alpha  occ. eigenvalues --   -1.21548  -0.95415  -0.88374  -0.82390  -0.79331
 Alpha  occ. eigenvalues --   -0.75703  -0.73278  -0.72638  -0.71075  -0.70504
 Alpha  occ. eigenvalues --   -0.70103  -0.69597  -0.68310  -0.67501  -0.66651
 Alpha  occ. eigenvalues --   -0.65618  -0.64054  -0.61633  -0.58140  -0.57938
 Alpha  occ. eigenvalues --   -0.57402  -0.56570  -0.56313  -0.55835  -0.55077
 Alpha  occ. eigenvalues --   -0.54607  -0.54157  -0.53707  -0.53043  -0.52782
 Alpha  occ. eigenvalues --   -0.52697  -0.52139  -0.51535  -0.51323  -0.51132
 Alpha  occ. eigenvalues --   -0.50612  -0.50296  -0.50008  -0.49566  -0.48993
 Alpha  occ. eigenvalues --   -0.47683  -0.45952  -0.44473
 Alpha virt. eigenvalues --    0.05350   0.06367   0.13099   0.14060   0.19056
 Alpha virt. eigenvalues --    0.20999   0.21535   0.22366   0.23831   0.24157
 Alpha virt. eigenvalues --    0.24823   0.26814   0.28009   0.28808   0.31911

 Mulliken charges:
               1
     1  F   -0.241614
     2  C    0.993357
     3  F   -0.243041
     4  F   -0.243069
     5  O   -0.512170
     6  C    0.763264
     7  F   -0.259980
     8  F   -0.253246
     9  C    0.516310
    10  F   -0.267872
    11  F   -0.259550
    12  C    0.491679
    13  F   -0.256934
    14  F   -0.266144
    15  C    0.769909
    16  F   -0.249116
    17  F   -0.240542
    18  F   -0.241240
 Sum of Mulliken charges =   0.00000

 Dipole moment (field-independent basis, Debye):
    X=              0.0748    Y=              0.0653    Z=              0.0848  Tot=              0.1306
 Quadrupole moment (field-independent basis, Debye-Ang):
   XX=            -92.9829   YY=            -93.2910   ZZ=            -93.3063
   XY=             -0.1644   XZ=              0.1071   YZ=             -0.0097

 Normal termination of Gaussian 09 at Sun Feb  2 04:54:51 2025.
