 Gaussian 09, Revision D.01,
 Gaussian 09:  ES64L-G09RevD.01 24-Apr-2013

 ----------------------------------------------------------------------
 #p CAM-B3LYP/6-31G(d,p) SCRF=(PCM,Solvent=Generic,Read) NoSymm out=wfn
 ----------------------------------------------------------------------

 -------------------
 Title A1181988620_0
 -------------------
 Symbolic Z-matrix:
 Charge =  0 Multiplicity = 1

                          Input orientation:
 ---------------------------------------------------------------------
 Center     Atomic      Atomic             Coordinates (Angstroms)
 Number     Number       Type             X           Y           Z
 ---------------------------------------------------------------------
      1          6           0        3.836794   -1.845367   -0.480964
      2          6           0        2.833680   -1.088965   -1.340353
      3          7           0        1.977737   -0.222527   -0.530059
      4          6           0        2.395919    1.072054   -0.298406
      5          8           0        3.462992    1.505255   -0.735371
      6          7           0        1.532586    1.858154    0.434188
      7          6           0        1.871322    3.260836    0.609203
      8          6           0        0.301139    1.423347    0.872841
      9          8           0       -0.543879    2.210924    1.294601
     10          7           0        0.065245    0.074791    0.788860
     11          6           0       -1.182603   -0.423695    1.342230
     12          9           0       -1.077619   -1.758331    1.624495
     13          9           0       -1.310075    0.126110    2.597772
     14          6           0       -2.514249   -0.177205    0.578901
     15          9           0       -2.680201    1.159097    0.357509
     16          8           0       -3.584741   -0.568865    1.458666
     17          6           0       -4.849310   -0.533924    0.855363
     18          9           0       -4.997462    0.548819    0.077021
     19          9           0       -5.785792   -0.506680    1.821885
     20          9           0       -5.018214   -1.651574    0.128703
     21          6           0       -2.447161   -0.901197   -0.766678
     22          9           0       -3.556512   -0.677451   -1.512102
     23          9           0       -1.412013   -0.458857   -1.519418
     24          9           0       -2.332995   -2.236634   -0.629960
     25          6           0        0.818422   -0.752000   -0.003307
     26          8           0        0.462018   -1.900738   -0.263281
     27          1           0        4.487033   -1.154841    0.065961
     28          1           0        4.466327   -2.485755   -1.106287
     29          1           0        3.328415   -2.477817    0.254121
     30          1           0        3.369912   -0.488746   -2.084078
     31          1           0        2.216238   -1.804457   -1.895039
     32          1           0        2.952802    3.391020    0.711982
     33          1           0        1.531173    3.808829   -0.275252
     34          1           0        1.383069    3.676390    1.495690
 ---------------------------------------------------------------------

 SCF Done:  E(RCAM-B3LYP) =  -1749.10879295     A.U. after   13 cycles

 Alpha  occ. eigenvalues --  -24.83982 -24.83471 -24.83298 -24.83236 -24.83042
 Alpha  occ. eigenvalues --  -24.82841 -24.82551 -24.82310 -24.81532 -19.32651
 Alpha  occ. eigenvalues --  -19.23132 -19.22769 -19.22627 -14.52278 -14.49660
 Alpha  occ. eigenvalues --  -14.49458 -10.59325 -10.55493 -10.52898 -10.48814
 Alpha  occ. eigenvalues --  -10.44925 -10.44863 -10.43818 -10.31098 -10.30743
 Alpha  occ. eigenvalues --  -10.25768  -1.43053  -1.41836  -1.38093  -1.35362
 Alpha  occ. eigenvalues --   -1.33291  -1.33255  -1.32886  -1.32222  -1.30535
 Alpha  occ. eigenvalues --   -1.21630  -1.20084  -1.16579  -1.16306  -1.08637
 Alpha  occ. eigenvalues --   -1.06391  -1.04876  -0.93269  -0.87050  -0.84073
 Alpha  occ. eigenvalues --   -0.82960  -0.82119  -0.78302  -0.77468  -0.75069
 Alpha  occ. eigenvalues --   -0.73578  -0.72565  -0.71775  -0.71104  -0.70303
 Alpha  occ. eigenvalues --   -0.69430  -0.68662  -0.67488  -0.66961  -0.65807
 Alpha  occ. eigenvalues --   -0.63703  -0.61508  -0.60044  -0.59361  -0.57472
 Alpha  occ. eigenvalues --   -0.56944  -0.56310  -0.56005  -0.55845  -0.55515
 Alpha  occ. eigenvalues --   -0.54866  -0.54280  -0.54050  -0.53981  -0.53713
 Alpha  occ. eigenvalues --   -0.53018  -0.52862  -0.52730  -0.52211  -0.51669
 Alpha  occ. eigenvalues --   -0.51372  -0.50783  -0.50498  -0.50364  -0.50028
 Alpha  occ. eigenvalues --   -0.49314  -0.48712  -0.48349  -0.47752  -0.47331
 Alpha  occ. eigenvalues --   -0.46131  -0.45630  -0.44869  -0.44218  -0.42065
 Alpha  occ. eigenvalues --   -0.39269  -0.38612  -0.37835  -0.35993  -0.35179
 Alpha  occ. eigenvalues --   -0.34820
 Alpha virt. eigenvalues --    0.01716   0.02462   0.06598   0.07687   0.12181
 Alpha virt. eigenvalues --    0.14478   0.15436   0.16542   0.16972   0.17640
 Alpha virt. eigenvalues --    0.19138   0.19690   0.20170   0.20433   0.21781

 Mulliken charges:
               1
     1  C   -0.326101
     2  C   -0.064336
     3  N   -0.568954
     4  C    0.824359
     5  O   -0.525234
     6  N   -0.566020
     7  C   -0.183349
     8  C    0.823668
     9  O   -0.504423
    10  N   -0.629330
    11  C    0.748664
    12  F   -0.250091
    13  F   -0.270740
    14  C    0.434582
    15  F   -0.253897
    16  O   -0.513904
    17  C    0.996140
    18  F   -0.243528
    19  F   -0.239809
    20  F   -0.246314
    21  C    0.816181
    22  F   -0.255722
    23  F   -0.250202
    24  F   -0.234950
    25  C    0.835143
    26  O   -0.519607
    27  H    0.125997
    28  H    0.127110
    29  H    0.126720
    30  H    0.153114
    31  H    0.153948
    32  H    0.163192
    33  H    0.155920
    34  H    0.161775
 Sum of Mulliken charges =   0.00000

 Dipole moment (field-independent basis, Debye):
    X=              2.7400    Y=              0.8997    Z=             -0.9344  Tot=              3.0315
 Quadrupole moment (field-independent basis, Debye-Ang):
   XX=           -144.1215   YY=           -142.5296   ZZ=           -141.7057
   XY=             -1.5651   XZ=              4.5738   YZ=              1.2620

 Normal termination of Gaussian 09 at Sun Mar  3 17:52:31 2024.
