 Gaussian 09, Revision D.01,
 Gaussian 09:  ES64L-G09RevD.01 24-Apr-2013

 ----------------------------------------------------------------------
 #p CAM-B3LYP/6-31G(d,p) SCRF=(PCM,Solvent=Generic,Read) NoSymm out=wfn
 ----------------------------------------------------------------------

 ------------------
 Title A687474391_0
 ------------------
 Symbolic Z-matrix:
 Charge =  0 Multiplicity = 1

                          Input orientation:
 ---------------------------------------------------------------------
 Center     Atomic      Atomic             Coordinates (Angstroms)
 Number     Number       Type             X           Y           Z
 ---------------------------------------------------------------------
      1          6           0       -3.513889    4.319546    0.997582
      2          6           0       -2.717621    3.236192    0.288954
      3          6           0       -2.001938    2.323686    1.288214
      4          7           0       -1.228659    1.280595    0.614461
      5          6           0       -1.885386    0.134505    0.220898
      6          8           0       -3.058286   -0.084714    0.525696
      7          7           0       -1.152222   -0.731269   -0.563321
      8          6           0       -1.823108   -1.904380   -1.127860
      9          6           0       -1.462417   -3.203063   -0.397871
     10          6           0       -1.964460   -3.241821    1.037730
     11          6           0        0.173108   -0.516569   -0.883380
     12          8           0        0.732906   -1.202578   -1.734432
     13          7           0        0.809482    0.494041   -0.219876
     14          6           0        2.224725    0.759222   -0.465031
     15          9           0        2.337738    1.586596   -1.539967
     16          9           0        2.682203    1.472579    0.611816
     17          6           0        3.199113   -0.440299   -0.626216
     18          9           0        3.092329   -0.967686   -1.880285
     19          8           0        2.827801   -1.467674    0.307679
     20          6           0        3.745324   -2.530986    0.335824
     21          9           0        4.147302   -2.879504   -0.894330
     22          9           0        4.802807   -2.174576    1.083731
     23          9           0        3.147764   -3.588066    0.917456
     24          6           0        4.611486    0.143818   -0.472790
     25          9           0        4.868021    0.527665    0.798744
     26          9           0        4.828885    1.208262   -1.274814
     27          9           0        5.558449   -0.773912   -0.790444
     28          6           0        0.077735    1.554686    0.260586
     29          8           0        0.533524    2.694132    0.355965
     30          1           0       -4.017359    4.959658    0.266383
     31          1           0       -4.277298    3.882411    1.649050
     32          1           0       -2.860333    4.950479    1.608382
     33          1           0       -3.392621    2.646594   -0.342451
     34          1           0       -1.988590    3.704435   -0.382631
     35          1           0       -2.735396    1.853753    1.954288
     36          1           0       -1.331078    2.916708    1.921465
     37          1           0       -1.527239   -1.998738   -2.179826
     38          1           0       -2.910116   -1.765900   -1.123290
     39          1           0       -1.904268   -4.044125   -0.945086
     40          1           0       -0.377033   -3.355477   -0.401247
     41          1           0       -3.047225   -3.087438    1.079833
     42          1           0       -1.743774   -4.215429    1.486880
     43          1           0       -1.480385   -2.475361    1.650507
 ---------------------------------------------------------------------

 SCF Done:  E(RCAM-B3LYP) =  -1866.98272943     A.U. after   13 cycles

 Alpha  occ. eigenvalues --  -24.83700 -24.83491 -24.83385 -24.83313 -24.82694
 Alpha  occ. eigenvalues --  -24.82645 -24.82533 -24.82474 -24.81775 -19.33071
 Alpha  occ. eigenvalues --  -19.23161 -19.23077 -19.22358 -14.51786 -14.49206
 Alpha  occ. eigenvalues --  -14.49110 -10.59554 -10.55257 -10.52905 -10.48885
 Alpha  occ. eigenvalues --  -10.44789 -10.44743 -10.43533 -10.30852 -10.30768
 Alpha  occ. eigenvalues --  -10.26250 -10.26115 -10.24982 -10.24725  -1.43164
 Alpha  occ. eigenvalues --   -1.41600  -1.38507  -1.34926  -1.33425  -1.33218
 Alpha  occ. eigenvalues --   -1.32599  -1.32038  -1.31427  -1.21525  -1.20426
 Alpha  occ. eigenvalues --   -1.16620  -1.16055  -1.08563  -1.06033  -1.04580
 Alpha  occ. eigenvalues --   -0.93174  -0.88747  -0.87270  -0.84263  -0.81735
 Alpha  occ. eigenvalues --   -0.80627  -0.80124  -0.77710  -0.75238  -0.74630
 Alpha  occ. eigenvalues --   -0.73014  -0.72553  -0.70868  -0.70327  -0.69753
 Alpha  occ. eigenvalues --   -0.68772  -0.68351  -0.67359  -0.67101  -0.66552
 Alpha  occ. eigenvalues --   -0.65588  -0.64839  -0.61101  -0.59900  -0.59217
 Alpha  occ. eigenvalues --   -0.57372  -0.57109  -0.56443  -0.56074  -0.55746
 Alpha  occ. eigenvalues --   -0.55515  -0.54855  -0.54597  -0.54229  -0.54161
 Alpha  occ. eigenvalues --   -0.53543  -0.53193  -0.52965  -0.52836  -0.52431
 Alpha  occ. eigenvalues --   -0.51764  -0.51536  -0.51254  -0.50401  -0.50269
 Alpha  occ. eigenvalues --   -0.50196  -0.50090  -0.49638  -0.49173  -0.48904
 Alpha  occ. eigenvalues --   -0.48304  -0.48080  -0.46794  -0.45885  -0.45562
 Alpha  occ. eigenvalues --   -0.44111  -0.43654  -0.42393  -0.41861  -0.41219
 Alpha  occ. eigenvalues --   -0.40694  -0.40027  -0.39127  -0.38299  -0.37609
 Alpha  occ. eigenvalues --   -0.35394  -0.34976  -0.34488
 Alpha virt. eigenvalues --    0.01285   0.02796   0.07309   0.08063   0.11753
 Alpha virt. eigenvalues --    0.14040   0.14831   0.16752   0.17139   0.17636
 Alpha virt. eigenvalues --    0.17709   0.18372   0.19094   0.19281   0.19693

 Mulliken charges:
               1
     1  C   -0.328302
     2  C   -0.186779
     3  C   -0.050725
     4  N   -0.576468
     5  C    0.830268
     6  O   -0.530182
     7  N   -0.573207
     8  C   -0.063196
     9  C   -0.187888
    10  C   -0.319461
    11  C    0.833251
    12  O   -0.511027
    13  N   -0.637433
    14  C    0.797371
    15  F   -0.256288
    16  F   -0.274500
    17  C    0.413418
    18  F   -0.253801
    19  O   -0.518677
    20  C    0.995191
    21  F   -0.237926
    22  F   -0.244856
    23  F   -0.241092
    24  C    0.814593
    25  F   -0.247787
    26  F   -0.242518
    27  F   -0.260094
    28  C    0.824588
    29  O   -0.501534
    30  H    0.114587
    31  H    0.113005
    32  H    0.113686
    33  H    0.115721
    34  H    0.119336
    35  H    0.148544
    36  H    0.144826
    37  H    0.146327
    38  H    0.153974
    39  H    0.116695
    40  H    0.117609
    41  H    0.115577
    42  H    0.110174
    43  H    0.105001
 Sum of Mulliken charges =   0.00000

 Dipole moment (field-independent basis, Debye):
    X=             -2.7173    Y=             -0.9557    Z=              0.7815  Tot=              2.9846
 Quadrupole moment (field-independent basis, Debye-Ang):
   XX=           -169.1418   YY=           -159.5483   ZZ=           -161.1865
   XY=             -4.8895   XZ=              4.3585   YZ=              0.6726

 Normal termination of Gaussian 09 at Sun Mar  3 18:05:24 2024.
