 Gaussian 09, Revision D.01,
 Gaussian 09:  ES64L-G09RevD.01 24-Apr-2013

 ----------------------------------------------------------------------
 #p CAM-B3LYP/6-31G(d,p) SCRF=(PCM,Solvent=Generic,Read) NoSymm out=wfn
 ----------------------------------------------------------------------

 -------------------
 Title A687474391_p1
 -------------------
 Symbolic Z-matrix:
 Charge =  1 Multiplicity = 2

                          Input orientation:
 ---------------------------------------------------------------------
 Center     Atomic      Atomic             Coordinates (Angstroms)
 Number     Number       Type             X           Y           Z
 ---------------------------------------------------------------------
      1          6           0       -3.513889    4.319546    0.997582
      2          6           0       -2.717621    3.236192    0.288954
      3          6           0       -2.001938    2.323686    1.288214
      4          7           0       -1.228659    1.280595    0.614461
      5          6           0       -1.885386    0.134505    0.220898
      6          8           0       -3.058286   -0.084714    0.525696
      7          7           0       -1.152222   -0.731269   -0.563321
      8          6           0       -1.823108   -1.904380   -1.127860
      9          6           0       -1.462417   -3.203063   -0.397871
     10          6           0       -1.964460   -3.241821    1.037730
     11          6           0        0.173108   -0.516569   -0.883380
     12          8           0        0.732906   -1.202578   -1.734432
     13          7           0        0.809482    0.494041   -0.219876
     14          6           0        2.224725    0.759222   -0.465031
     15          9           0        2.337738    1.586596   -1.539967
     16          9           0        2.682203    1.472579    0.611816
     17          6           0        3.199113   -0.440299   -0.626216
     18          9           0        3.092329   -0.967686   -1.880285
     19          8           0        2.827801   -1.467674    0.307679
     20          6           0        3.745324   -2.530986    0.335824
     21          9           0        4.147302   -2.879504   -0.894330
     22          9           0        4.802807   -2.174576    1.083731
     23          9           0        3.147764   -3.588066    0.917456
     24          6           0        4.611486    0.143818   -0.472790
     25          9           0        4.868021    0.527665    0.798744
     26          9           0        4.828885    1.208262   -1.274814
     27          9           0        5.558449   -0.773912   -0.790444
     28          6           0        0.077735    1.554686    0.260586
     29          8           0        0.533524    2.694132    0.355965
     30          1           0       -4.017359    4.959658    0.266383
     31          1           0       -4.277298    3.882411    1.649050
     32          1           0       -2.860333    4.950479    1.608382
     33          1           0       -3.392621    2.646594   -0.342451
     34          1           0       -1.988590    3.704435   -0.382631
     35          1           0       -2.735396    1.853753    1.954288
     36          1           0       -1.331078    2.916708    1.921465
     37          1           0       -1.527239   -1.998738   -2.179826
     38          1           0       -2.910116   -1.765900   -1.123290
     39          1           0       -1.904268   -4.044125   -0.945086
     40          1           0       -0.377033   -3.355477   -0.401247
     41          1           0       -3.047225   -3.087438    1.079833
     42          1           0       -1.743774   -4.215429    1.486880
     43          1           0       -1.480385   -2.475361    1.650507
 ---------------------------------------------------------------------

 SCF Done:  E(UCAM-B3LYP) =  -1866.66843663     A.U. after   34 cycles

 Alpha  occ. eigenvalues --  -24.86931 -24.86644 -24.85644 -24.85527 -24.85419
 Alpha  occ. eigenvalues --  -24.85201 -24.84818 -24.84730 -24.84714 -19.35787
 Alpha  occ. eigenvalues --  -19.35734 -19.31243 -19.29951 -14.65745 -14.58735
 Alpha  occ. eigenvalues --  -14.57598 -10.61678 -10.57595 -10.57441 -10.54421
 Alpha  occ. eigenvalues --  -10.52171 -10.52045 -10.51254 -10.39872 -10.35617
 Alpha  occ. eigenvalues --  -10.33537 -10.29955 -10.29513 -10.27633  -1.45193
 Alpha  occ. eigenvalues --   -1.43945  -1.42512  -1.37804  -1.35984  -1.35404
 Alpha  occ. eigenvalues --   -1.35142  -1.34473  -1.33986  -1.31281  -1.25962
 Alpha  occ. eigenvalues --   -1.24421  -1.23097  -1.18321  -1.15122  -1.13055
 Alpha  occ. eigenvalues --   -0.97292  -0.95886  -0.92840  -0.90366  -0.87938
 Alpha  occ. eigenvalues --   -0.86975  -0.84757  -0.82998  -0.81036  -0.80463
 Alpha  occ. eigenvalues --   -0.78472  -0.76058  -0.75032  -0.74475  -0.72893
 Alpha  occ. eigenvalues --   -0.72655  -0.71793  -0.71413  -0.70466  -0.70110
 Alpha  occ. eigenvalues --   -0.69773  -0.68481  -0.67982  -0.67244  -0.64404
 Alpha  occ. eigenvalues --   -0.63676  -0.62692  -0.62006  -0.61522  -0.61150
 Alpha  occ. eigenvalues --   -0.59892  -0.59580  -0.59421  -0.58884  -0.58261
 Alpha  occ. eigenvalues --   -0.58045  -0.57616  -0.57091  -0.56650  -0.56041
 Alpha  occ. eigenvalues --   -0.55463  -0.55161  -0.55061  -0.54771  -0.54191
 Alpha  occ. eigenvalues --   -0.53952  -0.53745  -0.52961  -0.52237  -0.52046
 Alpha  occ. eigenvalues --   -0.51934  -0.51574  -0.51337  -0.51032  -0.50360
 Alpha  occ. eigenvalues --   -0.49339  -0.48535  -0.47930  -0.47477  -0.46900
 Alpha  occ. eigenvalues --   -0.46248  -0.46006  -0.45333  -0.45131  -0.44686
 Alpha  occ. eigenvalues --   -0.43350  -0.42367  -0.41633
 Alpha virt. eigenvalues --   -0.07327  -0.05230   0.02465   0.03642   0.05488
 Alpha virt. eigenvalues --    0.08579   0.10295   0.11035   0.11365   0.12358
 Alpha virt. eigenvalues --    0.13978   0.14399   0.14624   0.15015   0.15806

  Beta  occ. eigenvalues --  -24.86914 -24.86647 -24.85644 -24.85527 -24.85419
  Beta  occ. eigenvalues --  -24.85201 -24.84818 -24.84729 -24.84714 -19.35786
  Beta  occ. eigenvalues --  -19.35001 -19.31093 -19.29805 -14.64540 -14.58780
  Beta  occ. eigenvalues --  -14.57362 -10.61678 -10.57595 -10.57441 -10.54649
  Beta  occ. eigenvalues --  -10.52299 -10.52045 -10.51309 -10.39830 -10.35611
  Beta  occ. eigenvalues --  -10.33366 -10.29920 -10.29493 -10.27632  -1.45192
  Beta  occ. eigenvalues --   -1.43941  -1.42501  -1.37800  -1.35972  -1.35404
  Beta  occ. eigenvalues --   -1.35142  -1.34472  -1.33985  -1.30311  -1.25146
  Beta  occ. eigenvalues --   -1.24037  -1.23078  -1.16856  -1.14470  -1.12520
  Beta  occ. eigenvalues --   -0.97070  -0.95513  -0.92629  -0.90156  -0.87713
  Beta  occ. eigenvalues --   -0.86729  -0.84679  -0.82858  -0.80744  -0.80366
  Beta  occ. eigenvalues --   -0.78395  -0.75874  -0.74654  -0.73950  -0.72840
  Beta  occ. eigenvalues --   -0.72592  -0.71603  -0.71393  -0.70406  -0.69979
  Beta  occ. eigenvalues --   -0.69103  -0.68050  -0.67512  -0.66675  -0.63655
  Beta  occ. eigenvalues --   -0.62953  -0.62557  -0.61583  -0.60698  -0.60465
  Beta  occ. eigenvalues --   -0.59605  -0.59325  -0.58887  -0.58747  -0.58201
  Beta  occ. eigenvalues --   -0.57888  -0.57484  -0.57048  -0.56401  -0.55990
  Beta  occ. eigenvalues --   -0.55220  -0.54951  -0.54730  -0.54157  -0.53934
  Beta  occ. eigenvalues --   -0.53697  -0.53598  -0.52939  -0.52223  -0.51952
  Beta  occ. eigenvalues --   -0.51870  -0.51406  -0.51022  -0.50819  -0.49489
  Beta  occ. eigenvalues --   -0.48698  -0.47401  -0.47049  -0.46615  -0.46394
  Beta  occ. eigenvalues --   -0.45703  -0.45143  -0.44690  -0.44426  -0.43206
  Beta  occ. eigenvalues --   -0.42034  -0.40282
  Beta virt. eigenvalues --   -0.28171  -0.06442  -0.04132   0.03121   0.03712
  Beta virt. eigenvalues --    0.05863   0.08912   0.10533   0.11143   0.11513
  Beta virt. eigenvalues --    0.12516   0.14033   0.14589   0.14646   0.15065

 Mulliken charges and spin densities:
               1          2
     1  C   -0.333105   0.011850
     2  C   -0.209766   0.089269
     3  C   -0.101444   0.014387
     4  N   -0.445510   0.547387
     5  C    0.863056  -0.075861
     6  O   -0.441109   0.064060
     7  N   -0.552241   0.109525
     8  C   -0.090559  -0.000599
     9  C   -0.194627   0.018350
    10  C   -0.326689   0.000870
    11  C    0.868876  -0.030401
    12  O   -0.445327   0.058070
    13  N   -0.641689  -0.011601
    14  C    0.802977  -0.001627
    15  F   -0.241730  -0.000336
    16  F   -0.265268   0.003641
    17  C    0.412804   0.000015
    18  F   -0.247832   0.000267
    19  O   -0.522330   0.000236
    20  C    0.999728  -0.000042
    21  F   -0.234302  -0.000003
    22  F   -0.240620   0.000013
    23  F   -0.237854  -0.000001
    24  C    0.822033  -0.000021
    25  F   -0.244549   0.000107
    26  F   -0.238804   0.000003
    27  F   -0.253498  -0.000009
    28  C    0.880147  -0.132218
    29  O   -0.354820   0.286809
    30  H    0.155391   0.011158
    31  H    0.141114   0.000416
    32  H    0.140298  -0.000385
    33  H    0.163654  -0.002783
    34  H    0.163012  -0.001071
    35  H    0.226762   0.019026
    36  H    0.217959   0.013081
    37  H    0.184165   0.006439
    38  H    0.182609   0.000957
    39  H    0.146186   0.000368
    40  H    0.133355  -0.000199
    41  H    0.126736   0.000456
    42  H    0.131627   0.000463
    43  H    0.101184  -0.000066
 Sum of Mulliken charges =   1.00000   1.00000

 Dipole moment (field-independent basis, Debye):
    X=             -7.8220    Y=              4.4260    Z=              1.9704  Tot=              9.2008
 Quadrupole moment (field-independent basis, Debye-Ang):
   XX=           -143.1700   YY=           -128.6536   ZZ=           -152.4414
   XY=            -14.5258   XZ=             -0.1697   YZ=              7.2072

 Normal termination of Gaussian 09 at Sun Mar  3 18:07:01 2024.
