 Gaussian 09, Revision D.01,
 Gaussian 09:  ES64L-G09RevD.01 24-Apr-2013

 ----------------------------------------------------------------------
 #p CAM-B3LYP/6-31G(d,p) opt SCRF=(PCM,Solvent=Generic,Read) NoSymm out
 =wfn
 ----------------------------------------------------------------------

 -------------
 Title OA1_neu
 -------------
 Symbolic Z-matrix:
 Charge =  0 Multiplicity = 1

 SCF Done:  E(RCAM-B3LYP) =  -1974.52809790     A.U. after   13 cycles
 SCF Done:  E(RCAM-B3LYP) =  -1974.54656622     A.U. after   13 cycles
 SCF Done:  E(RCAM-B3LYP) =  -1974.55424468     A.U. after   12 cycles
 SCF Done:  E(RCAM-B3LYP) =  -1974.55672613     A.U. after   12 cycles
 SCF Done:  E(RCAM-B3LYP) =  -1974.55719049     A.U. after   12 cycles
 SCF Done:  E(RCAM-B3LYP) =  -1974.55789240     A.U. after   11 cycles
 SCF Done:  E(RCAM-B3LYP) =  -1974.55809358     A.U. after   11 cycles
 SCF Done:  E(RCAM-B3LYP) =  -1974.55804753     A.U. after   12 cycles
 SCF Done:  E(RCAM-B3LYP) =  -1974.55833319     A.U. after   10 cycles
 SCF Done:  E(RCAM-B3LYP) =  -1974.55854764     A.U. after   10 cycles
 SCF Done:  E(RCAM-B3LYP) =  -1974.55975928     A.U. after   11 cycles
 SCF Done:  E(RCAM-B3LYP) =  -1974.55979426     A.U. after   10 cycles
 SCF Done:  E(RCAM-B3LYP) =  -1974.55980880     A.U. after   10 cycles
 SCF Done:  E(RCAM-B3LYP) =  -1974.55981617     A.U. after    9 cycles
 SCF Done:  E(RCAM-B3LYP) =  -1974.55982399     A.U. after    9 cycles
 SCF Done:  E(RCAM-B3LYP) =  -1974.55982883     A.U. after    9 cycles
 SCF Done:  E(RCAM-B3LYP) =  -1974.55983127     A.U. after    8 cycles
 SCF Done:  E(RCAM-B3LYP) =  -1974.55983184     A.U. after    8 cycles
 SCF Done:  E(RCAM-B3LYP) =  -1974.55983192     A.U. after    7 cycles
 SCF Done:  E(RCAM-B3LYP) =  -1974.55983194     A.U. after    6 cycles
 Optimization completed.
    -- Stationary point found.

                          Input orientation:
 ---------------------------------------------------------------------
 Center     Atomic      Atomic             Coordinates (Angstroms)
 Number     Number       Type             X           Y           Z
 ---------------------------------------------------------------------
      1          9           0       -6.938118    1.592734    2.098785
      2          6           0       -6.126937    1.642630    1.044450
      3          9           0       -6.624302    2.532829    0.175694
      4          6           0       -5.966728    0.264485    0.368508
      5          9           0       -6.131313   -0.702867    1.281870
      6          9           0       -6.845948    0.101204   -0.626068
      7          6           0       -4.519658    0.327747   -0.142909
      8          9           0       -4.573423    1.059726   -1.303075
      9          6           0       -3.825634   -0.988220   -0.504588
     10          9           0       -3.860338   -1.837953    0.535245
     11          6           0       -4.434335   -1.659192   -1.752347
     12          8           0       -5.557968   -2.289002   -1.426758
     13          8           0       -3.934992   -1.598604   -2.838625
     14          9           0       -2.538345   -0.686126   -0.791701
     15          6           0       -3.829730    1.251771    0.909119
     16          9           0       -2.977575    2.085502    0.258515
     17          6           0       -3.056955    0.641517    2.103556
     18          9           0       -2.817880    1.690352    2.937084
     19          6           0       -1.696976   -0.057245    1.838031
     20          7           0       -0.729530    0.771274    1.410823
     21          6           0        0.608543    0.283743    1.104600
     22          6           0        0.742935   -0.199828   -0.339143
     23          6           0        2.126084   -0.765679   -0.664860
     24          6           0        3.261931    0.256520   -0.619571
     25          6           0        4.600982   -0.318190   -1.077248
     26          6           0        5.739352    0.699473   -1.023019
     27          6           0        7.075553    0.187431   -1.565889
     28          6           0        7.684339   -0.955122   -0.755944
     29          8           0       -1.566342   -1.240221    2.080374
     30          9           0       -3.886940   -0.215679    2.719953
     31          8           0       -4.868177    2.021328    1.455231
     32          1           0       -5.933647   -2.684733   -2.231175
     33          1           0       -0.967593    1.726765    1.193214
     34          1           0        1.310077    1.092157    1.321362
     35          1           0        0.819391   -0.535933    1.795185
     36          1           0        0.511538    0.628889   -1.019765
     37          1           0       -0.017259   -0.967257   -0.510280
     38          1           0        2.350878   -1.592433    0.021431
     39          1           0        2.090132   -1.207853   -1.667239
     40          1           0        3.376032    0.652421    0.397348
     41          1           0        3.000884    1.114968   -1.253168
     42          1           0        4.500278   -0.694046   -2.104348
     43          1           0        4.845826   -1.189210   -0.457589
     44          1           0        5.443204    1.588999   -1.592994
     45          1           0        5.875723    1.034818    0.013934
     46          1           0        6.941292   -0.133317   -2.606556
     47          1           0        7.785616    1.021622   -1.595159
     48          1           0        7.821915   -0.663958    0.290668
     49          1           0        8.662484   -1.241504   -1.151945
     50          1           0        7.051652   -1.846733   -0.770334
 ---------------------------------------------------------------------

 Alpha  occ. eigenvalues --  -24.83011 -24.82992 -24.82713 -24.82627 -24.82564
 Alpha  occ. eigenvalues --  -24.82487 -24.82405 -24.82112 -24.81264 -24.80996
 Alpha  occ. eigenvalues --  -19.31358 -19.30924 -19.25514 -19.20839 -14.44985
 Alpha  occ. eigenvalues --  -10.52007 -10.48313 -10.48266 -10.46905 -10.46331
 Alpha  occ. eigenvalues --  -10.43978 -10.42429 -10.38720 -10.29908 -10.25597
 Alpha  occ. eigenvalues --  -10.25278 -10.25055 -10.24839 -10.24732 -10.24687
 Alpha  occ. eigenvalues --  -10.24147  -1.40630  -1.38627  -1.37991  -1.37328
 Alpha  occ. eigenvalues --   -1.35912  -1.34033  -1.32904  -1.32039  -1.31735
 Alpha  occ. eigenvalues --   -1.30567  -1.23163  -1.21643  -1.14228  -1.13968
 Alpha  occ. eigenvalues --   -1.02480  -0.94960  -0.90143  -0.89505  -0.87375
 Alpha  occ. eigenvalues --   -0.86959  -0.83886  -0.81602  -0.79052  -0.77728
 Alpha  occ. eigenvalues --   -0.75598  -0.74169  -0.73476  -0.71267  -0.70313
 Alpha  occ. eigenvalues --   -0.69727  -0.68942  -0.68458  -0.67376  -0.67147
 Alpha  occ. eigenvalues --   -0.66908  -0.66050  -0.65777  -0.65240  -0.64697
 Alpha  occ. eigenvalues --   -0.64360  -0.63659  -0.62868  -0.62527  -0.58833
 Alpha  occ. eigenvalues --   -0.57294  -0.56566  -0.56141  -0.55488  -0.55234
 Alpha  occ. eigenvalues --   -0.54791  -0.54537  -0.54393  -0.54035  -0.53711
 Alpha  occ. eigenvalues --   -0.53352  -0.53124  -0.52795  -0.52609  -0.52135
 Alpha  occ. eigenvalues --   -0.51961  -0.51698  -0.51329  -0.50933  -0.50629
 Alpha  occ. eigenvalues --   -0.50347  -0.49948  -0.49646  -0.49218  -0.49034
 Alpha  occ. eigenvalues --   -0.48714  -0.48289  -0.47264  -0.46152  -0.45405
 Alpha  occ. eigenvalues --   -0.45082  -0.44927  -0.44596  -0.42839  -0.42165
 Alpha  occ. eigenvalues --   -0.42040  -0.41753  -0.41563  -0.40985  -0.39169
 Alpha  occ. eigenvalues --   -0.38729  -0.37892  -0.37863  -0.37595  -0.36288
 Alpha  occ. eigenvalues --   -0.33968  -0.32535
 Alpha virt. eigenvalues --    0.00938   0.04183   0.05933   0.10092   0.11987
 Alpha virt. eigenvalues --    0.12732   0.13191   0.13904   0.14121   0.15277
 Alpha virt. eigenvalues --    0.16323   0.16700   0.17189   0.18483   0.18700

 Mulliken charges:
               1
     1  F   -0.240378
     2  C    0.750744
     3  F   -0.244526
     4  C    0.539298
     5  F   -0.248809
     6  F   -0.258665
     7  C    0.147719
     8  F   -0.298410
     9  C    0.592920
    10  F   -0.251287
    11  C    0.529035
    12  O   -0.465562
    13  O   -0.421305
    14  F   -0.267224
    15  C    0.513803
    16  F   -0.273897
    17  C    0.531702
    18  F   -0.278736
    19  C    0.553526
    20  N   -0.535606
    21  C   -0.054914
    22  C   -0.181268
    23  C   -0.187164
    24  C   -0.179302
    25  C   -0.174477
    26  C   -0.174819
    27  C   -0.178482
    28  C   -0.319213
    29  O   -0.515636
    30  F   -0.264078
    31  O   -0.496645
    32  H    0.360740
    33  H    0.283528
    34  H    0.118465
    35  H    0.142552
    36  H    0.095461
    37  H    0.115149
    38  H    0.098676
    39  H    0.099190
    40  H    0.091590
    41  H    0.090173
    42  H    0.090359
    43  H    0.095127
    44  H    0.088088
    45  H    0.087769
    46  H    0.092266
    47  H    0.092059
    48  H    0.101779
    49  H    0.102208
    50  H    0.106477
 Sum of Mulliken charges =   0.00000

 Dipole moment (field-independent basis, Debye):
    X=              0.8233    Y=              0.4367    Z=             -2.2942  Tot=              2.4763
 Quadrupole moment (field-independent basis, Debye-Ang):
   XX=           -162.2621   YY=           -172.5018   ZZ=           -183.4977
   XY=             12.0191   XZ=             13.9181   YZ=              8.5059

 Normal termination of Gaussian 09 at Wed Feb  5 13:42:04 2025.
