 Gaussian 09, Revision D.01,
 Gaussian 09:  ES64L-G09RevD.01 24-Apr-2013

 ----------------------------------------------------------------------
 #p CAM-B3LYP/6-31G(d,p) SCRF=(PCM,Solvent=Generic,Read) NoSymm out=wfn
 ----------------------------------------------------------------------

 ------------------
 Title A124553251_0
 ------------------
 Symbolic Z-matrix:
 Charge =  0 Multiplicity = 1

                          Input orientation:
 ---------------------------------------------------------------------
 Center     Atomic      Atomic             Coordinates (Angstroms)
 Number     Number       Type             X           Y           Z
 ---------------------------------------------------------------------
      1          8           0       -2.133382   -0.262402   -3.472056
      2          6           0       -1.166232   -0.112291   -2.733911
      3          8           0        0.018266    0.246749   -3.276966
      4          6           0        1.029252    0.687124   -2.501176
      5          8           0        2.140109    0.846482   -2.990361
      6          7           0        0.739469    0.946946   -1.193677
      7          6           0        1.765326    1.605469   -0.399109
      8          9           0        2.190522    2.687419   -1.132719
      9          9           0        1.191771    2.199408    0.690743
     10          6           0        3.025856    0.817649    0.063057
     11          9           0        3.658166    0.289725   -1.023991
     12          8           0        3.938480    1.774030    0.629332
     13          6           0        5.065380    1.189373    1.225238
     14          9           0        5.543798    0.177467    0.485991
     15          9           0        6.020344    2.128331    1.352796
     16          9           0        4.730162    0.748595    2.449308
     17          6           0        2.577604   -0.320645    0.980345
     18          9           0        1.971132    0.126598    2.096493
     19          9           0        3.615005   -1.094669    1.373658
     20          9           0        1.722129   -1.153588    0.337663
     21          6           0       -0.315064    0.340097   -0.582412
     22          8           0       -0.429939    0.367650    0.635894
     23          7           0       -1.201490   -0.310208   -1.376496
     24          6           0       -2.434772   -0.913777   -0.875838
     25          9           0       -2.655071   -2.006325   -1.671019
     26          9           0       -3.468830   -0.067141   -1.130015
     27          6           0       -2.539092   -1.413777    0.595668
     28          9           0       -1.418369   -2.180201    0.848233
     29          8           0       -2.561149   -0.478899    1.680185
     30          6           0       -3.411597    0.621869    1.511148
     31          9           0       -3.485500    1.298828    2.670099
     32          9           0       -4.640320    0.216804    1.167831
     33          9           0       -2.920028    1.437698    0.562230
     34          6           0       -3.747397   -2.366707    0.646982
     35          9           0       -4.028105   -2.722877    1.926176
     36          9           0       -3.513768   -3.518514   -0.026170
     37          9           0       -4.872666   -1.832291    0.130504
 ---------------------------------------------------------------------

 SCF Done:  E(RCAM-B3LYP) =  -2776.36093805     A.U. after   13 cycles

 Alpha  occ. eigenvalues --  -24.84819 -24.84219 -24.84113 -24.84012 -24.83954
 Alpha  occ. eigenvalues --  -24.83921 -24.83864 -24.83830 -24.83728 -24.83707
 Alpha  occ. eigenvalues --  -24.83617 -24.83575 -24.83482 -24.83417 -24.83269
 Alpha  occ. eigenvalues --  -24.83118 -24.82921 -24.82825 -19.36456 -19.33343
 Alpha  occ. eigenvalues --  -19.32944 -19.26753 -19.26520 -19.25705 -14.55299
 Alpha  occ. eigenvalues --  -14.55279 -10.59917 -10.59830 -10.56270 -10.55382
 Alpha  occ. eigenvalues --  -10.55035 -10.54669 -10.50138 -10.50020 -10.49928
 Alpha  occ. eigenvalues --  -10.49864 -10.48453  -1.43659  -1.43608  -1.42519
 Alpha  occ. eigenvalues --   -1.41896  -1.40202  -1.39592  -1.36259  -1.35687
 Alpha  occ. eigenvalues --   -1.34242  -1.33996  -1.33945  -1.33730  -1.33503
 Alpha  occ. eigenvalues --   -1.33120  -1.32918  -1.32430  -1.32059  -1.32020
 Alpha  occ. eigenvalues --   -1.31396  -1.22366  -1.20833  -1.20704  -1.20352
 Alpha  occ. eigenvalues --   -1.15581  -1.12038  -1.10893  -0.94596  -0.93686
 Alpha  occ. eigenvalues --   -0.87897  -0.86579  -0.83400  -0.82829  -0.82184
 Alpha  occ. eigenvalues --   -0.80841  -0.79020  -0.77399  -0.76230  -0.74680
 Alpha  occ. eigenvalues --   -0.73766  -0.72693  -0.71717  -0.71287  -0.71008
 Alpha  occ. eigenvalues --   -0.70891  -0.70084  -0.70012  -0.69450  -0.69085
 Alpha  occ. eigenvalues --   -0.68564  -0.68495  -0.67710  -0.67308  -0.66799
 Alpha  occ. eigenvalues --   -0.65388  -0.65039  -0.64199  -0.60803  -0.59767
 Alpha  occ. eigenvalues --   -0.59389  -0.58726  -0.58159  -0.57966  -0.57838
 Alpha  occ. eigenvalues --   -0.57481  -0.57455  -0.56820  -0.56798  -0.56402
 Alpha  occ. eigenvalues --   -0.56268  -0.55980  -0.55919  -0.55751  -0.55385
 Alpha  occ. eigenvalues --   -0.55221  -0.54857  -0.54624  -0.54352  -0.54194
 Alpha  occ. eigenvalues --   -0.53597  -0.53497  -0.53380  -0.53209  -0.52762
 Alpha  occ. eigenvalues --   -0.52381  -0.52110  -0.51889  -0.51362  -0.51330
 Alpha  occ. eigenvalues --   -0.51009  -0.50874  -0.50733  -0.50551  -0.50183
 Alpha  occ. eigenvalues --   -0.49673  -0.49612  -0.49315  -0.49193  -0.48640
 Alpha  occ. eigenvalues --   -0.48447  -0.46604  -0.45045  -0.43946  -0.43703
 Alpha  occ. eigenvalues --   -0.42838  -0.41397  -0.41317  -0.40018  -0.38110
 Alpha virt. eigenvalues --   -0.01555  -0.01100   0.03830   0.05515   0.06531
 Alpha virt. eigenvalues --    0.06761   0.08309   0.12973   0.13936   0.15607
 Alpha virt. eigenvalues --    0.16914   0.17997   0.18498   0.18928   0.19632

 Mulliken charges:
               1
     1  O   -0.437404
     2  C    0.809562
     3  O   -0.428327
     4  C    0.800138
     5  O   -0.442680
     6  N   -0.620260
     7  C    0.754786
     8  F   -0.263090
     9  F   -0.243069
    10  C    0.436531
    11  F   -0.250846
    12  O   -0.511430
    13  C    0.998493
    14  F   -0.242017
    15  F   -0.236891
    16  F   -0.244693
    17  C    0.819190
    18  F   -0.232165
    19  F   -0.249870
    20  F   -0.253127
    21  C    0.875547
    22  O   -0.488912
    23  N   -0.629388
    24  C    0.795602
    25  F   -0.267126
    26  F   -0.250192
    27  C    0.423394
    28  F   -0.277501
    29  O   -0.483360
    30  C    0.991780
    31  F   -0.235437
    32  F   -0.240293
    33  F   -0.248314
    34  C    0.808100
    35  F   -0.251448
    36  F   -0.246897
    37  F   -0.238386
 Sum of Mulliken charges =   0.00000

 Dipole moment (field-independent basis, Debye):
    X=              0.1631    Y=              0.1701    Z=              1.0936  Tot=              1.1188
 Quadrupole moment (field-independent basis, Debye-Ang):
   XX=           -201.2621   YY=           -193.5252   ZZ=           -209.0848
   XY=             -5.8589   XZ=              0.3629   YZ=              0.3279

 Normal termination of Gaussian 09 at Sun Mar  3 18:19:48 2024.
