 Gaussian 09, Revision D.01,
 Gaussian 09:  ES64L-G09RevD.01 24-Apr-2013

 ----------------------------------------------------------------------
 #p CAM-B3LYP/6-31G(d,p) SCRF=(PCM,Solvent=Generic,Read) NoSymm out=wfn
 ----------------------------------------------------------------------

 -------------------
 Title A124553251_p1
 -------------------
 Symbolic Z-matrix:
 Charge =  1 Multiplicity = 2

                          Input orientation:
 ---------------------------------------------------------------------
 Center     Atomic      Atomic             Coordinates (Angstroms)
 Number     Number       Type             X           Y           Z
 ---------------------------------------------------------------------
      1          8           0       -2.133382   -0.262402   -3.472056
      2          6           0       -1.166232   -0.112291   -2.733911
      3          8           0        0.018266    0.246749   -3.276966
      4          6           0        1.029252    0.687124   -2.501176
      5          8           0        2.140109    0.846482   -2.990361
      6          7           0        0.739469    0.946946   -1.193677
      7          6           0        1.765326    1.605469   -0.399109
      8          9           0        2.190522    2.687419   -1.132719
      9          9           0        1.191771    2.199408    0.690743
     10          6           0        3.025856    0.817649    0.063057
     11          9           0        3.658166    0.289725   -1.023991
     12          8           0        3.938480    1.774030    0.629332
     13          6           0        5.065380    1.189373    1.225238
     14          9           0        5.543798    0.177467    0.485991
     15          9           0        6.020344    2.128331    1.352796
     16          9           0        4.730162    0.748595    2.449308
     17          6           0        2.577604   -0.320645    0.980345
     18          9           0        1.971132    0.126598    2.096493
     19          9           0        3.615005   -1.094669    1.373658
     20          9           0        1.722129   -1.153588    0.337663
     21          6           0       -0.315064    0.340097   -0.582412
     22          8           0       -0.429939    0.367650    0.635894
     23          7           0       -1.201490   -0.310208   -1.376496
     24          6           0       -2.434772   -0.913777   -0.875838
     25          9           0       -2.655071   -2.006325   -1.671019
     26          9           0       -3.468830   -0.067141   -1.130015
     27          6           0       -2.539092   -1.413777    0.595668
     28          9           0       -1.418369   -2.180201    0.848233
     29          8           0       -2.561149   -0.478899    1.680185
     30          6           0       -3.411597    0.621869    1.511148
     31          9           0       -3.485500    1.298828    2.670099
     32          9           0       -4.640320    0.216804    1.167831
     33          9           0       -2.920028    1.437698    0.562230
     34          6           0       -3.747397   -2.366707    0.646982
     35          9           0       -4.028105   -2.722877    1.926176
     36          9           0       -3.513768   -3.518514   -0.026170
     37          9           0       -4.872666   -1.832291    0.130504
 ---------------------------------------------------------------------

 SCF Done:  E(UCAM-B3LYP) =  -2776.00151020     A.U. after   37 cycles

 Alpha  occ. eigenvalues --  -24.90968 -24.89787 -24.89738 -24.89634 -24.89386
 Alpha  occ. eigenvalues --  -24.89087 -24.88651 -24.88426 -24.88289 -24.87817
 Alpha  occ. eigenvalues --  -24.87490 -24.86990 -24.86693 -24.86254 -24.86217
 Alpha  occ. eigenvalues --  -24.86209 -24.85810 -24.85756 -19.48319 -19.43599
 Alpha  occ. eigenvalues --  -19.40862 -19.36660 -19.35285 -19.35265 -14.65417
 Alpha  occ. eigenvalues --  -14.65305 -10.64922 -10.62315 -10.61808 -10.61539
 Alpha  occ. eigenvalues --  -10.60948 -10.60392 -10.59406 -10.57708 -10.57667
 Alpha  occ. eigenvalues --  -10.55966 -10.54369  -1.48383  -1.47402  -1.46440
 Alpha  occ. eigenvalues --   -1.45928  -1.45398  -1.44816  -1.41426  -1.40551
 Alpha  occ. eigenvalues --   -1.40339  -1.39147  -1.38761  -1.38404  -1.38320
 Alpha  occ. eigenvalues --   -1.37652  -1.37376  -1.36929  -1.36023  -1.35863
 Alpha  occ. eigenvalues --   -1.35396  -1.35367  -1.28455  -1.27790  -1.24810
 Alpha  occ. eigenvalues --   -1.24092  -1.22906  -1.19968  -1.00419  -0.99342
 Alpha  occ. eigenvalues --   -0.95609  -0.94006  -0.91578  -0.89206  -0.87689
 Alpha  occ. eigenvalues --   -0.87233  -0.86153  -0.82119  -0.81062  -0.79963
 Alpha  occ. eigenvalues --   -0.78623  -0.77565  -0.76771  -0.76340  -0.76176
 Alpha  occ. eigenvalues --   -0.75852  -0.75206  -0.74780  -0.74496  -0.73643
 Alpha  occ. eigenvalues --   -0.72940  -0.72652  -0.72533  -0.71964  -0.71838
 Alpha  occ. eigenvalues --   -0.71202  -0.70784  -0.70178  -0.69408  -0.68351
 Alpha  occ. eigenvalues --   -0.66660  -0.66026  -0.65150  -0.64379  -0.63974
 Alpha  occ. eigenvalues --   -0.63054  -0.62940  -0.62064  -0.61546  -0.61421
 Alpha  occ. eigenvalues --   -0.61302  -0.61053  -0.60821  -0.60649  -0.60508
 Alpha  occ. eigenvalues --   -0.59763  -0.59460  -0.59351  -0.59163  -0.59108
 Alpha  occ. eigenvalues --   -0.58815  -0.58330  -0.58121  -0.57946  -0.57482
 Alpha  occ. eigenvalues --   -0.57147  -0.56719  -0.56554  -0.56304  -0.55881
 Alpha  occ. eigenvalues --   -0.55515  -0.55008  -0.54953  -0.54784  -0.54554
 Alpha  occ. eigenvalues --   -0.54414  -0.54310  -0.54181  -0.53815  -0.53367
 Alpha  occ. eigenvalues --   -0.53251  -0.52514  -0.52210  -0.51144  -0.50551
 Alpha  occ. eigenvalues --   -0.49887  -0.49609  -0.49038  -0.48066  -0.47218
 Alpha virt. eigenvalues --   -0.12562  -0.08821  -0.02814  -0.00572   0.00330
 Alpha virt. eigenvalues --    0.00983   0.01614   0.05923   0.07904   0.09533
 Alpha virt. eigenvalues --    0.10191   0.11719   0.12135   0.12895   0.13671

  Beta  occ. eigenvalues --  -24.90860 -24.89784 -24.89733 -24.89632 -24.89361
  Beta  occ. eigenvalues --  -24.89086 -24.88638 -24.88412 -24.88280 -24.87815
  Beta  occ. eigenvalues --  -24.87484 -24.86990 -24.86690 -24.86253 -24.86213
  Beta  occ. eigenvalues --  -24.86209 -24.85810 -24.85756 -19.46461 -19.43584
  Beta  occ. eigenvalues --  -19.40566 -19.36659 -19.35006 -19.34988 -14.65316
  Beta  occ. eigenvalues --  -14.65213 -10.64932 -10.62315 -10.61935 -10.61543
  Beta  occ. eigenvalues --  -10.60954 -10.60392 -10.59399 -10.57734 -10.57700
  Beta  occ. eigenvalues --  -10.55972 -10.54370  -1.48341  -1.47368  -1.46416
  Beta  occ. eigenvalues --   -1.45782  -1.45394  -1.44805  -1.41293  -1.40326
  Beta  occ. eigenvalues --   -1.39363  -1.39135  -1.38743  -1.38386  -1.38039
  Beta  occ. eigenvalues --   -1.37643  -1.36932  -1.36023  -1.35860  -1.35582
  Beta  occ. eigenvalues --   -1.35388  -1.35359  -1.28090  -1.27243  -1.24121
  Beta  occ. eigenvalues --   -1.23892  -1.22196  -1.19572  -1.00340  -0.99273
  Beta  occ. eigenvalues --   -0.95236  -0.93676  -0.91054  -0.88521  -0.87394
  Beta  occ. eigenvalues --   -0.87004  -0.86060  -0.82027  -0.81013  -0.79892
  Beta  occ. eigenvalues --   -0.78570  -0.77480  -0.76623  -0.76209  -0.76042
  Beta  occ. eigenvalues --   -0.75597  -0.75041  -0.74672  -0.74376  -0.72978
  Beta  occ. eigenvalues --   -0.72779  -0.72543  -0.72022  -0.71925  -0.71746
  Beta  occ. eigenvalues --   -0.71123  -0.70724  -0.70146  -0.69354  -0.67754
  Beta  occ. eigenvalues --   -0.65863  -0.65069  -0.64589  -0.63926  -0.62975
  Beta  occ. eigenvalues --   -0.62939  -0.62187  -0.61925  -0.61479  -0.61149
  Beta  occ. eigenvalues --   -0.60999  -0.60919  -0.60637  -0.60409  -0.60095
  Beta  occ. eigenvalues --   -0.59699  -0.59364  -0.59270  -0.59035  -0.58935
  Beta  occ. eigenvalues --   -0.58332  -0.58149  -0.57882  -0.57461  -0.57081
  Beta  occ. eigenvalues --   -0.56754  -0.56537  -0.56200  -0.55845  -0.55372
  Beta  occ. eigenvalues --   -0.54890  -0.54814  -0.54485  -0.54422  -0.54326
  Beta  occ. eigenvalues --   -0.54149  -0.53879  -0.53798  -0.53314  -0.53134
  Beta  occ. eigenvalues --   -0.52489  -0.52208  -0.50797  -0.49716  -0.49412
  Beta  occ. eigenvalues --   -0.48869  -0.48269  -0.47322  -0.45609
  Beta virt. eigenvalues --   -0.33371  -0.12290  -0.08700  -0.02778  -0.00527
  Beta virt. eigenvalues --    0.00449   0.01033   0.01689   0.06064   0.07986
  Beta virt. eigenvalues --    0.09603   0.10380   0.11829   0.12507   0.12957

 Mulliken charges and spin densities:
               1          2
     1  O   -0.349089   0.097807
     2  C    0.864921  -0.017402
     3  O   -0.403345   0.006761
     4  C    0.856759  -0.021569
     5  O   -0.352245   0.111385
     6  N   -0.615470   0.036207
     7  C    0.737230  -0.005274
     8  F   -0.236261   0.003708
     9  F   -0.221887   0.026163
    10  C    0.456067   0.000438
    11  F   -0.239108   0.001656
    12  O   -0.501950   0.000174
    13  C    1.005602  -0.000030
    14  F   -0.238009   0.000013
    15  F   -0.229735  -0.000008
    16  F   -0.240720   0.000013
    17  C    0.812903  -0.000741
    18  F   -0.226814   0.002037
    19  F   -0.235213   0.000195
    20  F   -0.255490   0.000862
    21  C    1.000892  -0.063623
    22  O   -0.220928   0.683393
    23  N   -0.629488   0.033793
    24  C    0.798185   0.000958
    25  F   -0.241603   0.000866
    26  F   -0.224648   0.001312
    27  C    0.391834  -0.007153
    28  F   -0.257179   0.006864
    29  O   -0.453611   0.096446
    30  C    1.007850  -0.004509
    31  F   -0.216731   0.000477
    32  F   -0.222430   0.003843
    33  F   -0.246378   0.000991
    34  C    0.826623   0.001752
    35  F   -0.238131   0.000123
    36  F   -0.234501   0.001124
    37  F   -0.227901   0.000950
 Sum of Mulliken charges =   1.00000   1.00000

 Dipole moment (field-independent basis, Debye):
    X=             -1.9342    Y=              1.2173    Z=             -1.8844  Tot=              2.9621
 Quadrupole moment (field-independent basis, Debye-Ang):
   XX=           -175.5089   YY=           -184.7949   ZZ=           -187.7664
   XY=              0.3613   XZ=             -0.9168   YZ=             -0.6703

 Normal termination of Gaussian 09 at Sun Mar  3 18:22:25 2024.
