 Gaussian 09, Revision D.01,
 Gaussian 09:  ES64L-G09RevD.01 24-Apr-2013

 ----------------------------------------------------------------------
 #p CAM-B3LYP/6-31G(d,p) SCRF=(PCM,Solvent=Generic,Read) NoSymm out=wfn
 ----------------------------------------------------------------------

 --------------------
 Title A1671897790_p1
 --------------------
 Symbolic Z-matrix:
 Charge =  1 Multiplicity = 2

                          Input orientation:
 ---------------------------------------------------------------------
 Center     Atomic      Atomic             Coordinates (Angstroms)
 Number     Number       Type             X           Y           Z
 ---------------------------------------------------------------------
      1          8           0        2.549228   -1.318370    1.683995
      2          6           0        1.415224   -1.234548    1.219379
      3          7           0        0.292339   -1.692322    1.866649
      4          8           0        0.491082   -2.403201    3.070263
      5          6           0       -0.969863   -1.193665    1.663579
      6          8           0       -1.890147   -1.510246    2.416805
      7          7           0       -1.091068   -0.301036    0.622747
      8          6           0       -2.415923    0.250457    0.363460
      9          9           0       -2.312026    1.444217   -0.274799
     10          9           0       -2.956059    0.601024    1.574800
     11          6           0       -3.425449   -0.686823   -0.357656
     12          9           0       -3.196755   -1.972251    0.093055
     13          8           0       -4.796316   -0.473477    0.010858
     14          6           0       -5.378260    0.673267   -0.552854
     15          9           0       -4.596383    1.741985   -0.360723
     16          9           0       -6.566009    0.889627    0.038170
     17          9           0       -5.574715    0.481311   -1.865371
     18          6           0       -3.127311   -0.701180   -1.856110
     19          9           0       -1.905244   -1.227855   -2.102957
     20          9           0       -3.175522    0.522254   -2.415586
     21          9           0       -4.018712   -1.481128   -2.515341
     22          6           0       -0.069448   -0.058604   -0.269865
     23          8           0       -0.248515    0.637810   -1.264169
     24          7           0        1.154532   -0.629498    0.007590
     25          6           0        2.296353   -0.237495   -0.811627
     26          9           0        3.230217   -1.224226   -0.775290
     27          9           0        1.904015   -0.238480   -2.117124
     28          6           0        2.914850    1.134640   -0.436846
     29          9           0        1.910222    2.076251   -0.507020
     30          8           0        3.325840    1.238629    0.931737
     31          6           0        4.641891    0.805095    1.189464
     32          9           0        4.891988   -0.367952    0.597919
     33          9           0        5.506653    1.726464    0.734407
     34          9           0        4.805868    0.683283    2.517853
     35          6           0        3.937783    1.492027   -1.523263
     36          9           0        4.492102    2.705205   -1.278426
     37          9           0        3.381934    1.569871   -2.752721
     38          9           0        4.950214    0.604052   -1.602468
     39          1           0       -0.378612   -2.325112    3.515322
 ---------------------------------------------------------------------

 SCF Done:  E(UCAM-B3LYP) =  -2831.32380347     A.U. after   29 cycles

 Alpha  occ. eigenvalues --  -24.87661 -24.87457 -24.87301 -24.87110 -24.87049
 Alpha  occ. eigenvalues --  -24.87002 -24.86608 -24.86493 -24.86330 -24.86205
 Alpha  occ. eigenvalues --  -24.86029 -24.85810 -24.85773 -24.85712 -24.85627
 Alpha  occ. eigenvalues --  -24.85481 -24.85410 -24.84877 -19.51009 -19.37362
 Alpha  occ. eigenvalues --  -19.37041 -19.36506 -19.36289 -19.31173 -14.75015
 Alpha  occ. eigenvalues --  -14.61880 -14.60974 -10.62261 -10.62130 -10.58619
 Alpha  occ. eigenvalues --  -10.58499 -10.58281 -10.58014 -10.57689 -10.57135
 Alpha  occ. eigenvalues --  -10.53864 -10.53023 -10.52782  -1.46032  -1.45930
 Alpha  occ. eigenvalues --   -1.44793  -1.44411  -1.43610  -1.43439  -1.41393
 Alpha  occ. eigenvalues --   -1.39390  -1.38845  -1.36742  -1.36501  -1.36331
 Alpha  occ. eigenvalues --   -1.35996  -1.35906  -1.35656  -1.35386  -1.35003
 Alpha  occ. eigenvalues --   -1.34927  -1.34295  -1.30769  -1.29445  -1.26108
 Alpha  occ. eigenvalues --   -1.23784  -1.23651  -1.20367  -1.17074  -1.14819
 Alpha  occ. eigenvalues --   -0.97916  -0.97333  -0.94970  -0.91690  -0.89217
 Alpha  occ. eigenvalues --   -0.86791  -0.85488  -0.85333  -0.84306  -0.82292
 Alpha  occ. eigenvalues --   -0.79665  -0.78852  -0.77503  -0.76985  -0.76174
 Alpha  occ. eigenvalues --   -0.75959  -0.74857  -0.74625  -0.74030  -0.73251
 Alpha  occ. eigenvalues --   -0.72764  -0.72455  -0.72121  -0.71552  -0.71143
 Alpha  occ. eigenvalues --   -0.70899  -0.69931  -0.69895  -0.69295  -0.68167
 Alpha  occ. eigenvalues --   -0.67519  -0.67389  -0.66736  -0.65957  -0.64895
 Alpha  occ. eigenvalues --   -0.63437  -0.62503  -0.62021  -0.61649  -0.60886
 Alpha  occ. eigenvalues --   -0.60536  -0.60470  -0.60160  -0.59885  -0.59590
 Alpha  occ. eigenvalues --   -0.59525  -0.59149  -0.58810  -0.58269  -0.58188
 Alpha  occ. eigenvalues --   -0.58085  -0.57960  -0.57860  -0.57067  -0.56990
 Alpha  occ. eigenvalues --   -0.56637  -0.56177  -0.55935  -0.55391  -0.55249
 Alpha  occ. eigenvalues --   -0.55172  -0.54423  -0.54308  -0.53821  -0.53671
 Alpha  occ. eigenvalues --   -0.53432  -0.53347  -0.52922  -0.52593  -0.52491
 Alpha  occ. eigenvalues --   -0.52333  -0.52069  -0.51906  -0.51748  -0.51451
 Alpha  occ. eigenvalues --   -0.51218  -0.51053  -0.50857  -0.49968  -0.49331
 Alpha  occ. eigenvalues --   -0.47567  -0.46057  -0.45163  -0.43995
 Alpha virt. eigenvalues --   -0.10852  -0.08323  -0.07263  -0.00536   0.00936
 Alpha virt. eigenvalues --    0.01937   0.02979   0.05891   0.06075   0.08508
 Alpha virt. eigenvalues --    0.10791   0.11854   0.12198   0.14814   0.15352

  Beta  occ. eigenvalues --  -24.87653 -24.87457 -24.87299 -24.87110 -24.87049
  Beta  occ. eigenvalues --  -24.86997 -24.86608 -24.86493 -24.86330 -24.86205
  Beta  occ. eigenvalues --  -24.86029 -24.85810 -24.85773 -24.85712 -24.85627
  Beta  occ. eigenvalues --  -24.85481 -24.85409 -24.84877 -19.50001 -19.36966
  Beta  occ. eigenvalues --  -19.36503 -19.36490 -19.36287 -19.31132 -14.73874
  Beta  occ. eigenvalues --  -14.61866 -14.60989 -10.62261 -10.62131 -10.58620
  Beta  occ. eigenvalues --  -10.58499 -10.58281 -10.58014 -10.57853 -10.57332
  Beta  occ. eigenvalues --  -10.53882 -10.53022 -10.52782  -1.46031  -1.45928
  Beta  occ. eigenvalues --   -1.44792  -1.44406  -1.43590  -1.43431  -1.39585
  Beta  occ. eigenvalues --   -1.39343  -1.38843  -1.36736  -1.36497  -1.36327
  Beta  occ. eigenvalues --   -1.35990  -1.35901  -1.35655  -1.35386  -1.35003
  Beta  occ. eigenvalues --   -1.34927  -1.34294  -1.30074  -1.28772  -1.25568
  Beta  occ. eigenvalues --   -1.23771  -1.23646  -1.19365  -1.16886  -1.13358
  Beta  occ. eigenvalues --   -0.97826  -0.97231  -0.94617  -0.91655  -0.88846
  Beta  occ. eigenvalues --   -0.86625  -0.85481  -0.85332  -0.84288  -0.81937
  Beta  occ. eigenvalues --   -0.79472  -0.78677  -0.77028  -0.76943  -0.75947
  Beta  occ. eigenvalues --   -0.75264  -0.74689  -0.74048  -0.73234  -0.72979
  Beta  occ. eigenvalues --   -0.72584  -0.72277  -0.71898  -0.71550  -0.71088
  Beta  occ. eigenvalues --   -0.70873  -0.69871  -0.69787  -0.69177  -0.67992
  Beta  occ. eigenvalues --   -0.67360  -0.66718  -0.66202  -0.64525  -0.63804
  Beta  occ. eigenvalues --   -0.62769  -0.62347  -0.61886  -0.61470  -0.60620
  Beta  occ. eigenvalues --   -0.60424  -0.60190  -0.59852  -0.59691  -0.59519
  Beta  occ. eigenvalues --   -0.59103  -0.58792  -0.58539  -0.58254  -0.58159
  Beta  occ. eigenvalues --   -0.57923  -0.57875  -0.57204  -0.57003  -0.56643
  Beta  occ. eigenvalues --   -0.56361  -0.56134  -0.55596  -0.55253  -0.55161
  Beta  occ. eigenvalues --   -0.54825  -0.54330  -0.54240  -0.53809  -0.53620
  Beta  occ. eigenvalues --   -0.53370  -0.53311  -0.52651  -0.52528  -0.52445
  Beta  occ. eigenvalues --   -0.52064  -0.51921  -0.51777  -0.51284  -0.51217
  Beta  occ. eigenvalues --   -0.51003  -0.50472  -0.48983  -0.48766  -0.47383
  Beta  occ. eigenvalues --   -0.45765  -0.44637  -0.43866
  Beta virt. eigenvalues --   -0.29668  -0.09782  -0.06979  -0.05894   0.00080
  Beta virt. eigenvalues --    0.01015   0.01950   0.03169   0.06118   0.06291
  Beta virt. eigenvalues --    0.08555   0.10906   0.12093   0.12303   0.14831

 Mulliken charges and spin densities:
               1          2
     1  O   -0.344225   0.219179
     2  C    0.894905  -0.112226
     3  N   -0.223828   0.467557
     4  O   -0.138521   0.346872
     5  C    0.924565  -0.089918
     6  O   -0.398460   0.158563
     7  N   -0.655937   0.008925
     8  C    0.758424  -0.000983
     9  F   -0.224773   0.000169
    10  F   -0.255139   0.000957
    11  C    0.442485   0.000500
    12  F   -0.273364   0.000334
    13  O   -0.487062   0.000722
    14  C    0.984682  -0.000026
    15  F   -0.233835   0.000010
    16  F   -0.230376  -0.000003
    17  F   -0.235169   0.000014
    18  C    0.823529  -0.000023
    19  F   -0.246682   0.000080
    20  F   -0.235541   0.000004
    21  F   -0.247459   0.000036
    22  C    0.893118  -0.009891
    23  O   -0.425675   0.016003
    24  N   -0.653872  -0.001378
    25  C    0.769600  -0.000828
    26  F   -0.236455   0.001718
    27  F   -0.236184   0.000180
    28  C    0.443495   0.000056
    29  F   -0.259983   0.000207
    30  O   -0.512208   0.000649
    31  C    1.013467  -0.000348
    32  F   -0.240449   0.000078
    33  F   -0.239613   0.000044
    34  F   -0.237646   0.000061
    35  C    0.813349  -0.000100
    36  F   -0.250882   0.000022
    37  F   -0.238525   0.000002
    38  F   -0.241843   0.000022
    39  H    0.442089  -0.007241
 Sum of Mulliken charges =   1.00000   1.00000

 Dipole moment (field-independent basis, Debye):
    X=             -0.2992    Y=             -7.0950    Z=              8.9533  Tot=             11.4276
 Quadrupole moment (field-independent basis, Debye-Ang):
   XX=           -188.6239   YY=           -182.6183   ZZ=           -173.8669
   XY=             -0.4188   XZ=              0.1816   YZ=            -14.7105

 Normal termination of Gaussian 09 at Sun Mar  3 17:32:03 2024.
