 Gaussian 09, Revision D.01,
 Gaussian 09:  ES64L-G09RevD.01 24-Apr-2013

 ----------------------------------------------------------------------
 #p CAM-B3LYP/6-31G(d,p) SCRF=(PCM,Solvent=Generic,Read) NoSymm out=wfn
 ----------------------------------------------------------------------

 -------------------
 Title A1671897790_0
 -------------------
 Symbolic Z-matrix:
 Charge =  0 Multiplicity = 1

                          Input orientation:
 ---------------------------------------------------------------------
 Center     Atomic      Atomic             Coordinates (Angstroms)
 Number     Number       Type             X           Y           Z
 ---------------------------------------------------------------------
      1          8           0       -2.622298   -2.086920    1.872029
      2          6           0       -1.624054   -2.061741    1.157228
      3          7           0       -0.497003   -2.805834    1.416490
      4          8           0       -0.519601   -3.576384    2.602513
      5          6           0        0.749713   -2.507107    0.927821
      6          8           0        1.756389   -2.912254    1.508218
      7          7           0        0.768177   -1.687186   -0.173359
      8          6           0        2.075598   -1.340024   -0.721296
      9          9           0        1.934789   -1.048454   -2.041246
     10          9           0        2.837761   -2.470371   -0.735234
     11          6           0        2.817752   -0.198982    0.026648
     12          9           0        2.935690   -0.570148    1.347833
     13          8           0        2.067953    1.017822    0.127362
     14          6           0        2.233324    1.906629   -0.953831
     15          9           0        2.139966    1.266819   -2.124223
     16          9           0        1.276283    2.846865   -0.879697
     17          9           0        3.432456    2.501298   -0.860483
     18          6           0        4.240620   -0.123917   -0.543688
     19          9           0        4.262207    0.176539   -1.858433
     20          9           0        4.920507   -1.281705   -0.390116
     21          9           0        4.962086    0.830461    0.093967
     22          6           0       -0.305475   -0.883841   -0.483590
     23          8           0       -0.161819    0.115851   -1.179919
     24          7           0       -1.522090   -1.214232    0.072572
     25          6           0       -2.701651   -0.441171   -0.310936
     26          9           0       -3.824982   -1.190945   -0.111962
     27          9           0       -2.663863   -0.329380   -1.681612
     28          6           0       -2.922386    0.988465    0.264867
     29          9           0       -4.054462    1.488724   -0.328613
     30          8           0       -1.854686    1.847031   -0.147740
     31          6           0       -1.940668    3.150742    0.364968
     32          9           0       -1.221246    3.974248   -0.417482
     33          9           0       -1.409548    3.157437    1.600122
     34          9           0       -3.207589    3.589061    0.406555
     35          6           0       -3.149820    0.883710    1.772652
     36          9           0       -4.153758    0.048945    2.098125
     37          9           0       -3.461296    2.081882    2.320623
     38          9           0       -2.018309    0.464632    2.390707
     39          1           0        0.425335   -3.606565    2.861036
 ---------------------------------------------------------------------

 SCF Done:  E(RCAM-B3LYP) =  -2831.64700756     A.U. after   13 cycles

 Alpha  occ. eigenvalues --  -24.84110 -24.83874 -24.83780 -24.83720 -24.83711
 Alpha  occ. eigenvalues --  -24.83687 -24.83679 -24.83670 -24.83645 -24.83641
 Alpha  occ. eigenvalues --  -24.83599 -24.83556 -24.83473 -24.83250 -24.83139
 Alpha  occ. eigenvalues --  -24.83017 -24.83001 -24.82604 -19.33531 -19.32962
 Alpha  occ. eigenvalues --  -19.31886 -19.26501 -19.25762 -19.24944 -14.56913
 Alpha  occ. eigenvalues --  -14.54670 -14.54490 -10.59773 -10.59597 -10.55822
 Alpha  occ. eigenvalues --  -10.55756 -10.54286 -10.54253 -10.49761 -10.49453
 Alpha  occ. eigenvalues --  -10.48263 -10.47958 -10.47204  -1.43559  -1.43326
 Alpha  occ. eigenvalues --   -1.42131  -1.42069  -1.40127  -1.39379  -1.36026
 Alpha  occ. eigenvalues --   -1.35481  -1.34079  -1.33619  -1.33476  -1.33394
 Alpha  occ. eigenvalues --   -1.33313  -1.33000  -1.32699  -1.32495  -1.32281
 Alpha  occ. eigenvalues --   -1.31701  -1.26864  -1.22003  -1.20836  -1.20568
 Alpha  occ. eigenvalues --   -1.19432  -1.16572  -1.11670  -1.09843  -1.02525
 Alpha  occ. eigenvalues --   -0.93999  -0.93515  -0.86666  -0.85484  -0.82842
 Alpha  occ. eigenvalues --   -0.82642  -0.80789  -0.80272  -0.77657  -0.76930
 Alpha  occ. eigenvalues --   -0.75982  -0.74529  -0.73494  -0.72939  -0.72287
 Alpha  occ. eigenvalues --   -0.71412  -0.71085  -0.70343  -0.69809  -0.69693
 Alpha  occ. eigenvalues --   -0.69117  -0.68641  -0.68578  -0.67703  -0.66984
 Alpha  occ. eigenvalues --   -0.66725  -0.66589  -0.65557  -0.64638  -0.64336
 Alpha  occ. eigenvalues --   -0.63798  -0.60215  -0.59910  -0.58533  -0.58111
 Alpha  occ. eigenvalues --   -0.57779  -0.57420  -0.57306  -0.57093  -0.56987
 Alpha  occ. eigenvalues --   -0.56665  -0.56591  -0.56158  -0.56011  -0.55936
 Alpha  occ. eigenvalues --   -0.55737  -0.55282  -0.55095  -0.54983  -0.54536
 Alpha  occ. eigenvalues --   -0.53994  -0.53933  -0.53621  -0.53305  -0.53176
 Alpha  occ. eigenvalues --   -0.52886  -0.52619  -0.52248  -0.51619  -0.51523
 Alpha  occ. eigenvalues --   -0.51393  -0.51363  -0.51118  -0.50810  -0.50733
 Alpha  occ. eigenvalues --   -0.50528  -0.50246  -0.49957  -0.49793  -0.49443
 Alpha  occ. eigenvalues --   -0.49253  -0.49106  -0.49056  -0.48376  -0.46785
 Alpha  occ. eigenvalues --   -0.45894  -0.44705  -0.44248  -0.42456  -0.41462
 Alpha  occ. eigenvalues --   -0.39849  -0.39513  -0.37589  -0.36090
 Alpha virt. eigenvalues --   -0.01067  -0.00506   0.04159   0.04916   0.06254
 Alpha virt. eigenvalues --    0.07279   0.07988   0.09872   0.12486   0.14497
 Alpha virt. eigenvalues --    0.15558   0.17304   0.17407   0.18450   0.18946

 Mulliken charges:
               1
     1  O   -0.458525
     2  C    0.818979
     3  N   -0.323169
     4  O   -0.379935
     5  C    0.824060
     6  O   -0.496867
     7  N   -0.643636
     8  C    0.769681
     9  F   -0.244770
    10  F   -0.253104
    11  C    0.439408
    12  F   -0.263795
    13  O   -0.510461
    14  C    1.013429
    15  F   -0.239518
    16  F   -0.240948
    17  F   -0.244593
    18  C    0.804056
    19  F   -0.244592
    20  F   -0.242555
    21  F   -0.256435
    22  C    0.842461
    23  O   -0.461910
    24  N   -0.643240
    25  C    0.753491
    26  F   -0.243777
    27  F   -0.263096
    28  C    0.433055
    29  F   -0.265902
    30  O   -0.499959
    31  C    0.995280
    32  F   -0.236427
    33  F   -0.248344
    34  F   -0.242177
    35  C    0.817169
    36  F   -0.230223
    37  F   -0.251860
    38  F   -0.253370
    39  H    0.372123
 Sum of Mulliken charges =   0.00000

 Dipole moment (field-independent basis, Debye):
    X=              1.1827    Y=             -0.7551    Z=             -0.2007  Tot=              1.4174
 Quadrupole moment (field-independent basis, Debye-Ang):
   XX=           -211.1602   YY=           -198.3380   ZZ=           -202.4757
   XY=             -2.8362   XZ=              4.9922   YZ=              3.4401

 Normal termination of Gaussian 09 at Tue Mar  5 18:41:33 2024.
