 Gaussian 09, Revision D.01,
 Gaussian 09:  ES64L-G09RevD.01 24-Apr-2013

 ----------------------------------------------------------------------
 #p CAM-B3LYP/6-31G(d,p) SCRF=(PCM,Solvent=Generic,Read) NoSymm out=wfn
 ----------------------------------------------------------------------

 --------------
 Title AEP0_neu
 --------------
 Symbolic Z-matrix:
 Charge =  0 Multiplicity = 1

                          Input orientation:
 ---------------------------------------------------------------------
 Center     Atomic      Atomic             Coordinates (Angstroms)
 Number     Number       Type             X           Y           Z
 ---------------------------------------------------------------------
      1          9           0        6.015920   -2.611989    1.121591
      2          6           0        5.463407   -1.418622    0.831982
      3          9           0        6.390591   -0.474208    1.093657
      4          6           0        4.948860   -1.325065   -0.589694
      5          9           0        5.876903   -1.040277   -1.515187
      6          9           0        4.405404   -2.515415   -0.960850
      7          6           0        3.854464   -0.306398   -0.470230
      8          9           0        2.944455   -0.469049   -1.463423
      9          6           0        4.331508    1.137120   -0.494696
     10          9           0        3.239113    1.949628   -0.338181
     11          6           0        5.059291    1.482252   -1.793487
     12          8           0        4.248356    1.603193   -2.865185
     13          8           0        6.263935    1.640441   -1.924498
     14          9           0        5.114310    1.395817    0.586831
     15          6           0        3.283340   -0.666198    0.901540
     16          9           0        2.847967    0.452389    1.547967
     17          6           0        2.121813   -1.682035    0.905991
     18          9           0        1.815305   -1.962416    2.216645
     19          6           0        0.870963   -1.126816    0.203525
     20          7           0        0.186301   -0.153390    0.912776
     21          6           0       -1.037242    0.451600    0.408695
     22          6           0       -2.267752   -0.456812    0.601295
     23          7           0       -3.531232    0.162304    0.167740
     24          6           0       -3.888289    1.342858    0.972749
     25          6           0       -5.393989    1.638532    1.024923
     26          6           0       -6.081252    1.243920   -0.272896
     27          6           0       -5.838655   -0.231796   -0.594478
     28          6           0       -4.618800   -0.817429    0.126466
     29          8           0        0.506339   -1.504826   -0.907551
     30          9           0        2.534110   -2.868443    0.382822
     31          8           0        4.369884   -1.179855    1.713351
     32          1           0        4.837092    1.838733   -3.615119
     33          1           0        0.427169    0.004790    1.887178
     34          1           0       -0.902120    0.681862   -0.654332
     35          1           0       -1.152360    1.395248    0.950941
     36          1           0       -2.335196   -0.771696    1.651331
     37          1           0       -2.096429   -1.371181    0.018738
     38          1           0       -3.377727    2.212671    0.542386
     39          1           0       -3.535873    1.244175    2.007623
     40          1           0       -5.555121    2.702882    1.229983
     41          1           0       -5.848522    1.082897    1.855187
     42          1           0       -5.689329    1.862306   -1.090343
     43          1           0       -7.156884    1.444628   -0.216755
     44          1           0       -6.722962   -0.818591   -0.317801
     45          1           0       -5.722053   -0.340570   -1.679957
     46          1           0       -4.891958   -1.137257    1.140729
     47          1           0       -4.313053   -1.719917   -0.417181
 ---------------------------------------------------------------------

 SCF Done:  E(RCAM-B3LYP) =  -1989.34360003     A.U. after   13 cycles

 Alpha  occ. eigenvalues --  -24.84077 -24.83227 -24.82741 -24.82704 -24.82645
 Alpha  occ. eigenvalues --  -24.82621 -24.82100 -24.82064 -24.81506 -24.81431
 Alpha  occ. eigenvalues --  -19.31643 -19.30322 -19.25340 -19.21702 -14.45498
 Alpha  occ. eigenvalues --  -14.39437 -10.52611 -10.49436 -10.48983 -10.47426
 Alpha  occ. eigenvalues --  -10.47161 -10.44461 -10.42970 -10.39802 -10.30324
 Alpha  occ. eigenvalues --  -10.28346 -10.27781 -10.27488 -10.25379 -10.24805
 Alpha  occ. eigenvalues --  -10.24690  -1.40623  -1.38413  -1.38195  -1.37056
 Alpha  occ. eigenvalues --   -1.35446  -1.34934  -1.32780  -1.31794  -1.31042
 Alpha  occ. eigenvalues --   -1.30128  -1.22216  -1.19813  -1.13768  -1.12325
 Alpha  occ. eigenvalues --   -1.02033  -1.00044  -0.97754  -0.90499  -0.88292
 Alpha  occ. eigenvalues --   -0.87839  -0.84161  -0.82870  -0.81056  -0.77993
 Alpha  occ. eigenvalues --   -0.76636  -0.73861  -0.73463  -0.70971  -0.70683
 Alpha  occ. eigenvalues --   -0.70448  -0.69897  -0.69411  -0.68234  -0.67171
 Alpha  occ. eigenvalues --   -0.66572  -0.66199  -0.65619  -0.65383  -0.64835
 Alpha  occ. eigenvalues --   -0.63759  -0.63708  -0.61708  -0.59721  -0.58366
 Alpha  occ. eigenvalues --   -0.57894  -0.57065  -0.56830  -0.56465  -0.56336
 Alpha  occ. eigenvalues --   -0.55923  -0.55520  -0.54512  -0.54187  -0.53978
 Alpha  occ. eigenvalues --   -0.53882  -0.53309  -0.52682  -0.52415  -0.52319
 Alpha  occ. eigenvalues --   -0.52073  -0.51822  -0.51619  -0.51153  -0.50912
 Alpha  occ. eigenvalues --   -0.50359  -0.50282  -0.49977  -0.49346  -0.48590
 Alpha  occ. eigenvalues --   -0.48213  -0.47976  -0.46910  -0.46818  -0.46486
 Alpha  occ. eigenvalues --   -0.45430  -0.45146  -0.44398  -0.43540  -0.43291
 Alpha  occ. eigenvalues --   -0.42068  -0.41997  -0.41058  -0.41053  -0.38209
 Alpha  occ. eigenvalues --   -0.37801  -0.37260  -0.36767  -0.34553  -0.32687
 Alpha  occ. eigenvalues --   -0.26824
 Alpha virt. eigenvalues --   -0.00294   0.02406   0.04312   0.09103   0.09549
 Alpha virt. eigenvalues --    0.11199   0.12367   0.12976   0.13696   0.15608
 Alpha virt. eigenvalues --    0.16192   0.16826   0.17251   0.18509   0.18818

 Mulliken charges:
               1
     1  F   -0.243576
     2  C    0.750797
     3  F   -0.240414
     4  C    0.543665
     5  F   -0.246187
     6  F   -0.258294
     7  C    0.152848
     8  F   -0.271082
     9  C    0.623001
    10  F   -0.278147
    11  C    0.527215
    12  O   -0.470586
    13  O   -0.443173
    14  F   -0.262496
    15  C    0.468182
    16  F   -0.276867
    17  C    0.566424
    18  F   -0.282067
    19  C    0.536901
    20  N   -0.539875
    21  C   -0.061603
    22  C   -0.017849
    23  N   -0.454424
    24  C   -0.017968
    25  C   -0.221040
    26  C   -0.178131
    27  C   -0.186808
    28  C   -0.033269
    29  O   -0.503878
    30  F   -0.263779
    31  O   -0.495194
    32  H    0.362821
    33  H    0.286990
    34  H    0.150348
    35  H    0.120949
    36  H    0.073795
    37  H    0.124839
    38  H    0.103767
    39  H    0.074187
    40  H    0.101481
    41  H    0.101444
    42  H    0.102470
    43  H    0.095549
    44  H    0.092764
    45  H    0.104004
    46  H    0.075981
    47  H    0.106282
 Sum of Mulliken charges =   0.00000

 Dipole moment (field-independent basis, Debye):
    X=             -2.7653    Y=              2.5976    Z=              0.5027  Tot=              3.8272
 Quadrupole moment (field-independent basis, Debye-Ang):
   XX=           -178.9387   YY=           -174.9126   ZZ=           -164.5565
   XY=              2.0532   XZ=            -14.3263   YZ=             -4.1503

 Normal termination of Gaussian 09 at Mon Feb  3 21:38:54 2025.
