 Gaussian 09, Revision D.01,
 Gaussian 09:  ES64L-G09RevD.01 24-Apr-2013

 ----------------------------------------------------------------------
 #p CAM-B3LYP/6-31G(d,p) SCRF=(PCM,Solvent=Generic,Read) NoSymm out=wfn
 ----------------------------------------------------------------------

 ------------------
 Title A201888831_0
 ------------------
 Symbolic Z-matrix:
 Charge =  0 Multiplicity = 1

                          Input orientation:
 ---------------------------------------------------------------------
 Center     Atomic      Atomic             Coordinates (Angstroms)
 Number     Number       Type             X           Y           Z
 ---------------------------------------------------------------------
      1          6           0        0.630261    5.230818   -0.812708
      2          6           0        0.013719    4.505277   -0.080431
      3          6           0       -0.741364    3.614307    0.816365
      4          7           0       -0.384481    2.222897    0.562543
      5          6           0       -1.126704    1.513524   -0.356747
      6          8           0       -2.066345    2.026120   -0.958782
      7          7           0       -0.782473    0.194593   -0.514455
      8          6           0       -1.621351   -0.647938   -1.361919
      9          9           0       -1.793876    0.023453   -2.548522
     10          9           0       -0.912436   -1.749109   -1.751283
     11          6           0       -3.027627   -1.084123   -0.858847
     12          9           0       -3.625927   -1.777025   -1.881428
     13          8           0       -3.842594    0.070410   -0.638438
     14          6           0       -5.108102   -0.215731   -0.107857
     15          9           0       -5.645414   -1.310982   -0.664404
     16          9           0       -5.919123    0.833745   -0.333398
     17          9           0       -4.987509   -0.383419    1.220657
     18          6           0       -2.848647   -2.017196    0.339056
     19          9           0       -2.041119   -3.062567    0.078018
     20          9           0       -2.345626   -1.338416    1.398683
     21          9           0       -4.027764   -2.543666    0.746761
     22          6           0        0.157697   -0.397179    0.288112
     23          8           0        0.133530   -1.601132    0.508559
     24          7           0        1.079544    0.429463    0.863652
     25          6           0        2.219470   -0.135935    1.587746
     26          9           0        1.830025   -0.433198    2.856014
     27          9           0        3.151687    0.859914    1.698080
     28          6           0        2.959470   -1.350004    0.960132
     29          9           0        2.244299   -2.493110    1.159934
     30          8           0        3.040669   -1.148186   -0.460536
     31          6           0        3.853845   -2.103865   -1.095273
     32          9           0        3.619632   -3.339654   -0.633340
     33          9           0        3.590658   -2.070055   -2.414528
     34          9           0        5.141999   -1.774495   -0.907342
     35          6           0        4.287473   -1.470013    1.723152
     36          9           0        5.131789   -0.453353    1.435991
     37          9           0        4.940390   -2.612179    1.395608
     38          9           0        4.118757   -1.497282    3.062677
     39          6           0        0.680644    1.685157    1.258244
     40          8           0        1.196967    2.288057    2.197065
     41          1           0        1.174889    5.878576   -1.461173
     42          1           0       -1.816988    3.759741    0.666117
     43          1           0       -0.531944    3.873761    1.859944
 ---------------------------------------------------------------------

 SCF Done:  E(RCAM-B3LYP) =  -2871.90047611     A.U. after   13 cycles

 Alpha  occ. eigenvalues --  -24.83971 -24.83910 -24.83732 -24.83713 -24.83699
 Alpha  occ. eigenvalues --  -24.83614 -24.83558 -24.83443 -24.83434 -24.83270
 Alpha  occ. eigenvalues --  -24.83260 -24.83191 -24.83061 -24.82991 -24.82953
 Alpha  occ. eigenvalues --  -24.82936 -24.82376 -24.82268 -19.33537 -19.32977
 Alpha  occ. eigenvalues --  -19.25277 -19.24540 -19.24325 -14.53490 -14.53197
 Alpha  occ. eigenvalues --  -14.51390 -10.59855 -10.59593 -10.55668 -10.55634
 Alpha  occ. eigenvalues --  -10.53892 -10.53767 -10.49402 -10.49300 -10.47295
 Alpha  occ. eigenvalues --  -10.46313 -10.46240 -10.34864 -10.27837 -10.27075
 Alpha  occ. eigenvalues --   -1.43466  -1.43300  -1.41984  -1.41932  -1.39241
 Alpha  occ. eigenvalues --   -1.39112  -1.35515  -1.35381  -1.33764  -1.33512
 Alpha  occ. eigenvalues --   -1.33501  -1.33350  -1.33190  -1.32995  -1.32432
 Alpha  occ. eigenvalues --   -1.32423  -1.32004  -1.31430  -1.24058  -1.20875
 Alpha  occ. eigenvalues --   -1.20712  -1.18823  -1.18246  -1.10693  -1.08978
 Alpha  occ. eigenvalues --   -1.07444  -0.94207  -0.93514  -0.89213  -0.85904
 Alpha  occ. eigenvalues --   -0.84414  -0.82471  -0.82438  -0.81884  -0.79219
 Alpha  occ. eigenvalues --   -0.78962  -0.76380  -0.76248  -0.75005  -0.73633
 Alpha  occ. eigenvalues --   -0.73025  -0.72626  -0.71504  -0.70826  -0.70676
 Alpha  occ. eigenvalues --   -0.70245  -0.69662  -0.69404  -0.68894  -0.68621
 Alpha  occ. eigenvalues --   -0.67879  -0.67299  -0.66773  -0.66326  -0.65832
 Alpha  occ. eigenvalues --   -0.65542  -0.64550  -0.63633  -0.61772  -0.60349
 Alpha  occ. eigenvalues --   -0.59939  -0.59609  -0.58171  -0.57834  -0.57630
 Alpha  occ. eigenvalues --   -0.57303  -0.57137  -0.56904  -0.56613  -0.56296
 Alpha  occ. eigenvalues --   -0.55951  -0.55843  -0.55700  -0.55523  -0.55154
 Alpha  occ. eigenvalues --   -0.54946  -0.54750  -0.54581  -0.54045  -0.53960
 Alpha  occ. eigenvalues --   -0.53534  -0.53469  -0.53104  -0.52832  -0.52669
 Alpha  occ. eigenvalues --   -0.52328  -0.52112  -0.52006  -0.51554  -0.51348
 Alpha  occ. eigenvalues --   -0.51032  -0.50946  -0.50753  -0.50590  -0.50431
 Alpha  occ. eigenvalues --   -0.50356  -0.50299  -0.50031  -0.49580  -0.49362
 Alpha  occ. eigenvalues --   -0.49158  -0.48954  -0.48800  -0.46279  -0.46148
 Alpha  occ. eigenvalues --   -0.44682  -0.44641  -0.41558  -0.40401  -0.39513
 Alpha  occ. eigenvalues --   -0.38811  -0.37902  -0.36599  -0.35169  -0.34477
 Alpha virt. eigenvalues --   -0.00627   0.00571   0.05669   0.06162   0.06936
 Alpha virt. eigenvalues --    0.07395   0.08336   0.09620   0.09980   0.14242
 Alpha virt. eigenvalues --    0.14770   0.16240   0.16958   0.17701   0.18190

 Mulliken charges:
               1
     1  C   -0.415047
     2  C    0.274497
     3  C   -0.179448
     4  N   -0.584108
     5  C    0.852676
     6  O   -0.487677
     7  N   -0.637853
     8  C    0.747793
     9  F   -0.261180
    10  F   -0.249922
    11  C    0.432812
    12  F   -0.266917
    13  O   -0.500974
    14  C    0.995982
    15  F   -0.241888
    16  F   -0.237371
    17  F   -0.248594
    18  C    0.819486
    19  F   -0.234497
    20  F   -0.251854
    21  F   -0.253669
    22  C    0.828798
    23  O   -0.469434
    24  N   -0.643726
    25  C    0.800382
    26  F   -0.250538
    27  F   -0.267214
    28  C    0.406001
    29  F   -0.249747
    30  O   -0.518457
    31  C    0.996910
    32  F   -0.237086
    33  F   -0.238736
    34  F   -0.243211
    35  C    0.816548
    36  F   -0.246376
    37  F   -0.258268
    38  F   -0.241658
    39  C    0.841189
    40  O   -0.485865
    41  H    0.193877
    42  H    0.195985
    43  H    0.198379
 Sum of Mulliken charges =   0.00000

 Dipole moment (field-independent basis, Debye):
    X=             -0.1366    Y=              1.8173    Z=             -0.3122  Tot=              1.8489
 Quadrupole moment (field-independent basis, Debye-Ang):
   XX=           -215.3786   YY=           -207.4560   ZZ=           -216.1707
   XY=              0.2321   XZ=            -11.5832   YZ=             -0.6827

 Normal termination of Gaussian 09 at Sun Mar  3 18:12:59 2024.
