 Gaussian 09, Revision D.01,
 Gaussian 09:  ES64L-G09RevD.01 24-Apr-2013

 ----------------------------------------------------------------------
 #p CAM-B3LYP/6-31G(d,p) SCRF=(PCM,Solvent=Generic,Read) NoSymm out=wfn
 ----------------------------------------------------------------------

 -------------------
 Title A201888831_p1
 -------------------
 Symbolic Z-matrix:
 Charge =  1 Multiplicity = 2

                          Input orientation:
 ---------------------------------------------------------------------
 Center     Atomic      Atomic             Coordinates (Angstroms)
 Number     Number       Type             X           Y           Z
 ---------------------------------------------------------------------
      1          6           0        0.630261    5.230818   -0.812708
      2          6           0        0.013719    4.505277   -0.080431
      3          6           0       -0.741364    3.614307    0.816365
      4          7           0       -0.384481    2.222897    0.562543
      5          6           0       -1.126704    1.513524   -0.356747
      6          8           0       -2.066345    2.026120   -0.958782
      7          7           0       -0.782473    0.194593   -0.514455
      8          6           0       -1.621351   -0.647938   -1.361919
      9          9           0       -1.793876    0.023453   -2.548522
     10          9           0       -0.912436   -1.749109   -1.751283
     11          6           0       -3.027627   -1.084123   -0.858847
     12          9           0       -3.625927   -1.777025   -1.881428
     13          8           0       -3.842594    0.070410   -0.638438
     14          6           0       -5.108102   -0.215731   -0.107857
     15          9           0       -5.645414   -1.310982   -0.664404
     16          9           0       -5.919123    0.833745   -0.333398
     17          9           0       -4.987509   -0.383419    1.220657
     18          6           0       -2.848647   -2.017196    0.339056
     19          9           0       -2.041119   -3.062567    0.078018
     20          9           0       -2.345626   -1.338416    1.398683
     21          9           0       -4.027764   -2.543666    0.746761
     22          6           0        0.157697   -0.397179    0.288112
     23          8           0        0.133530   -1.601132    0.508559
     24          7           0        1.079544    0.429463    0.863652
     25          6           0        2.219470   -0.135935    1.587746
     26          9           0        1.830025   -0.433198    2.856014
     27          9           0        3.151687    0.859914    1.698080
     28          6           0        2.959470   -1.350004    0.960132
     29          9           0        2.244299   -2.493110    1.159934
     30          8           0        3.040669   -1.148186   -0.460536
     31          6           0        3.853845   -2.103865   -1.095273
     32          9           0        3.619632   -3.339654   -0.633340
     33          9           0        3.590658   -2.070055   -2.414528
     34          9           0        5.141999   -1.774495   -0.907342
     35          6           0        4.287473   -1.470013    1.723152
     36          9           0        5.131789   -0.453353    1.435991
     37          9           0        4.940390   -2.612179    1.395608
     38          9           0        4.118757   -1.497282    3.062677
     39          6           0        0.680644    1.685157    1.258244
     40          8           0        1.196967    2.288057    2.197065
     41          1           0        1.174889    5.878576   -1.461173
     42          1           0       -1.816988    3.759741    0.666117
     43          1           0       -0.531944    3.873761    1.859944
 ---------------------------------------------------------------------

 SCF Done:  E(UCAM-B3LYP) =  -2871.58235117     A.U. after   28 cycles

 Alpha  occ. eigenvalues --  -24.85650 -24.85610 -24.85593 -24.85494 -24.85343
 Alpha  occ. eigenvalues --  -24.85176 -24.85162 -24.85160 -24.85112 -24.85036
 Alpha  occ. eigenvalues --  -24.85002 -24.84811 -24.84640 -24.84595 -24.84536
 Alpha  occ. eigenvalues --  -24.84497 -24.84385 -24.84114 -19.35292 -19.34826
 Alpha  occ. eigenvalues --  -19.29050 -19.28798 -19.28139 -14.57090 -14.56779
 Alpha  occ. eigenvalues --  -14.56497 -10.61357 -10.61199 -10.57313 -10.57189
 Alpha  occ. eigenvalues --  -10.56266 -10.56186 -10.51279 -10.51207 -10.50726
 Alpha  occ. eigenvalues --  -10.50656 -10.50191 -10.48393 -10.47792 -10.44868
 Alpha  occ. eigenvalues --   -1.44913  -1.44850  -1.43576  -1.43466  -1.41479
 Alpha  occ. eigenvalues --   -1.41298  -1.37239  -1.37090  -1.35180  -1.35056
 Alpha  occ. eigenvalues --   -1.35011  -1.34919  -1.34820  -1.34806  -1.34054
 Alpha  occ. eigenvalues --   -1.34010  -1.33662  -1.33589  -1.27884  -1.22823
 Alpha  occ. eigenvalues --   -1.22705  -1.22438  -1.22210  -1.14426  -1.12844
 Alpha  occ. eigenvalues --   -1.12391  -1.05385  -0.96718  -0.95509  -0.94429
 Alpha  occ. eigenvalues --   -0.88567  -0.87503  -0.84346  -0.84288  -0.83073
 Alpha  occ. eigenvalues --   -0.81912  -0.79919  -0.78887  -0.77689  -0.76382
 Alpha  occ. eigenvalues --   -0.75519  -0.74723  -0.74533  -0.73716  -0.72738
 Alpha  occ. eigenvalues --   -0.72263  -0.72006  -0.71258  -0.71190  -0.70831
 Alpha  occ. eigenvalues --   -0.70408  -0.70163  -0.69764  -0.69248  -0.68633
 Alpha  occ. eigenvalues --   -0.68262  -0.67975  -0.67513  -0.66882  -0.66476
 Alpha  occ. eigenvalues --   -0.64581  -0.63466  -0.62002  -0.61628  -0.60816
 Alpha  occ. eigenvalues --   -0.59569  -0.59454  -0.59227  -0.58978  -0.58671
 Alpha  occ. eigenvalues --   -0.58435  -0.58390  -0.58011  -0.57717  -0.57543
 Alpha  occ. eigenvalues --   -0.57501  -0.57154  -0.56800  -0.56600  -0.56506
 Alpha  occ. eigenvalues --   -0.56100  -0.55456  -0.55424  -0.55084  -0.54820
 Alpha  occ. eigenvalues --   -0.54637  -0.54467  -0.54097  -0.53705  -0.53560
 Alpha  occ. eigenvalues --   -0.53401  -0.53250  -0.53064  -0.53002  -0.52622
 Alpha  occ. eigenvalues --   -0.52400  -0.52331  -0.52133  -0.51903  -0.51586
 Alpha  occ. eigenvalues --   -0.51423  -0.51145  -0.50860  -0.50593  -0.50569
 Alpha  occ. eigenvalues --   -0.48201  -0.47992  -0.46589  -0.46529  -0.44791
 Alpha  occ. eigenvalues --   -0.44497  -0.43207  -0.42442  -0.42138  -0.40311
 Alpha virt. eigenvalues --   -0.07077  -0.06053  -0.04339  -0.02782   0.02729
 Alpha virt. eigenvalues --    0.03930   0.05015   0.05408   0.06265   0.07781
 Alpha virt. eigenvalues --    0.10175   0.11562   0.12355   0.13103   0.14783

  Beta  occ. eigenvalues --  -24.85650 -24.85610 -24.85593 -24.85494 -24.85343
  Beta  occ. eigenvalues --  -24.85176 -24.85162 -24.85160 -24.85112 -24.85036
  Beta  occ. eigenvalues --  -24.85002 -24.84811 -24.84640 -24.84594 -24.84536
  Beta  occ. eigenvalues --  -24.84497 -24.84385 -24.84114 -19.35292 -19.34826
  Beta  occ. eigenvalues --  -19.29018 -19.28769 -19.28136 -14.57097 -14.56779
  Beta  occ. eigenvalues --  -14.56497 -10.61357 -10.61199 -10.57313 -10.57189
  Beta  occ. eigenvalues --  -10.56266 -10.56186 -10.51279 -10.51207 -10.50727
  Beta  occ. eigenvalues --  -10.50658 -10.50192 -10.47795 -10.46952 -10.44838
  Beta  occ. eigenvalues --   -1.44913  -1.44850  -1.43576  -1.43466  -1.41478
  Beta  occ. eigenvalues --   -1.41297  -1.37239  -1.37090  -1.35180  -1.35056
  Beta  occ. eigenvalues --   -1.35011  -1.34918  -1.34820  -1.34805  -1.34054
  Beta  occ. eigenvalues --   -1.34010  -1.33661  -1.33588  -1.27870  -1.22807
  Beta  occ. eigenvalues --   -1.22690  -1.22426  -1.22186  -1.14386  -1.12740
  Beta  occ. eigenvalues --   -1.12375  -1.01987  -0.96433  -0.95506  -0.93683
  Beta  occ. eigenvalues --   -0.88547  -0.87489  -0.84330  -0.84267  -0.82988
  Beta  occ. eigenvalues --   -0.81893  -0.79865  -0.78841  -0.77654  -0.76027
  Beta  occ. eigenvalues --   -0.74978  -0.74719  -0.74443  -0.73646  -0.72722
  Beta  occ. eigenvalues --   -0.72262  -0.72001  -0.71256  -0.71177  -0.70787
  Beta  occ. eigenvalues --   -0.70265  -0.70072  -0.69717  -0.69243  -0.68546
  Beta  occ. eigenvalues --   -0.68207  -0.67929  -0.67506  -0.66862  -0.66430
  Beta  occ. eigenvalues --   -0.64421  -0.62071  -0.61742  -0.60975  -0.60777
  Beta  occ. eigenvalues --   -0.59538  -0.59431  -0.59193  -0.58967  -0.58663
  Beta  occ. eigenvalues --   -0.58385  -0.58234  -0.57976  -0.57572  -0.57529
  Beta  occ. eigenvalues --   -0.57477  -0.57065  -0.56795  -0.56538  -0.56441
  Beta  occ. eigenvalues --   -0.56047  -0.55446  -0.55412  -0.55043  -0.54815
  Beta  occ. eigenvalues --   -0.54623  -0.54388  -0.54073  -0.53658  -0.53461
  Beta  occ. eigenvalues --   -0.53255  -0.53081  -0.53008  -0.52465  -0.52332
  Beta  occ. eigenvalues --   -0.52202  -0.51906  -0.51592  -0.51482  -0.51316
  Beta  occ. eigenvalues --   -0.51131  -0.50862  -0.50589  -0.50566  -0.48200
  Beta  occ. eigenvalues --   -0.47989  -0.46588  -0.46521  -0.44729  -0.44326
  Beta  occ. eigenvalues --   -0.43091  -0.42425  -0.42074  -0.40210
  Beta virt. eigenvalues --   -0.29118  -0.05300  -0.04363  -0.02769  -0.01147
  Beta virt. eigenvalues --    0.02794   0.03954   0.05054   0.05424   0.06461
  Beta virt. eigenvalues --    0.08526   0.10429   0.11905   0.12411   0.13359

 Mulliken charges and spin densities:
               1          2
     1  C   -0.035809   0.535204
     2  C    0.493010   0.391157
     3  C   -0.216432   0.006094
     4  N   -0.597714  -0.000391
     5  C    0.869359  -0.001575
     6  O   -0.473076   0.010254
     7  N   -0.640567   0.000451
     8  C    0.748796  -0.000060
     9  F   -0.259157   0.000150
    10  F   -0.244075   0.000035
    11  C    0.435973   0.000002
    12  F   -0.261901  -0.000001
    13  O   -0.506405  -0.000007
    14  C    0.997786  -0.000004
    15  F   -0.238842   0.000000
    16  F   -0.236625   0.000000
    17  F   -0.247568   0.000000
    18  C    0.821292  -0.000002
    19  F   -0.232140   0.000007
    20  F   -0.253324   0.000003
    21  F   -0.250228   0.000000
    22  C    0.837614  -0.000280
    23  O   -0.450081   0.001261
    24  N   -0.646744   0.000190
    25  C    0.802513  -0.000048
    26  F   -0.244845   0.000011
    27  F   -0.266578   0.000209
    28  C    0.406844  -0.000005
    29  F   -0.246305   0.000022
    30  O   -0.522501   0.000002
    31  C    0.998603   0.000000
    32  F   -0.234562   0.000000
    33  F   -0.237915   0.000000
    34  F   -0.241698   0.000000
    35  C    0.819744  -0.000003
    36  F   -0.246529   0.000005
    37  F   -0.254911   0.000001
    38  F   -0.239816   0.000001
    39  C    0.856059  -0.001213
    40  O   -0.469004   0.010932
    41  H    0.327898  -0.018492
    42  H    0.288637   0.032288
    43  H    0.291224   0.033802
 Sum of Mulliken charges =   1.00000   1.00000

 Dipole moment (field-independent basis, Debye):
    X=              0.6295    Y=             22.3130    Z=             -1.3637  Tot=             22.3635
 Quadrupole moment (field-independent basis, Debye-Ang):
   XX=           -206.5593   YY=           -101.3237   ZZ=           -208.4356
   XY=              5.9329   XZ=            -12.0621   YZ=             -8.6790

 Normal termination of Gaussian 09 at Sun Mar  3 18:15:19 2024.
