 Gaussian 09, Revision D.01,
 Gaussian 09:  ES64L-G09RevD.01 24-Apr-2013

 ----------------------------------------------------------------------
 #p CAM-B3LYP/6-31G(d,p) SCRF=(PCM,Solvent=Generic,Read) NoSymm out=wfn
 ----------------------------------------------------------------------

 --------------------
 Title A1386248942_p1
 --------------------
 Symbolic Z-matrix:
 Charge =  1 Multiplicity = 2

                          Input orientation:
 ---------------------------------------------------------------------
 Center     Atomic      Atomic             Coordinates (Angstroms)
 Number     Number       Type             X           Y           Z
 ---------------------------------------------------------------------
      1          6           0       -2.257954    4.278321   -0.634821
      2          8           0       -1.769339    3.017661   -0.198618
      3          6           0       -1.682604    2.091865   -1.280080
      4          7           0       -1.173474    0.848446   -0.744030
      5          6           0       -2.086057   -0.079499   -0.299239
      6          8           0       -3.301426    0.086067   -0.417875
      7          7           0       -1.552072   -1.199445    0.291715
      8          6           0       -2.463143   -2.230640    0.736241
      9          8           0       -2.632830   -3.143089   -0.347103
     10          6           0       -3.503725   -4.208469    0.005908
     11          6           0       -0.203226   -1.398600    0.479067
     12          8           0        0.212523   -2.356144    1.133738
     13          7           0        0.646911   -0.464469   -0.079989
     14          6           0        2.069249   -0.754194    0.090236
     15          9           0        2.321799   -0.846934    1.429676
     16          9           0        2.260009   -2.017325   -0.404778
     17          6           0        3.185030    0.135177   -0.534422
     18          9           0        2.976831    0.187048   -1.898405
     19          8           0        3.315136    1.510580   -0.148647
     20          6           0        3.189351    1.760415    1.222963
     21          9           0        4.056805    1.013147    1.917014
     22          9           0        3.455048    3.058236    1.455807
     23          9           0        1.934998    1.496696    1.626077
     24          6           0        4.507233   -0.628922   -0.334583
     25          9           0        5.562850    0.126344   -0.737440
     26          9           0        4.747073   -0.974649    0.946786
     27          9           0        4.558148   -1.768409   -1.064478
     28          6           0        0.189527    0.684697   -0.663119
     29          8           0        0.950619    1.543742   -1.100228
     30          1           0       -3.264360    4.176204   -1.052173
     31          1           0       -2.304756    4.946970    0.228872
     32          1           0       -1.583635    4.714789   -1.377966
     33          1           0       -2.673164    1.949517   -1.726519
     34          1           0       -1.008695    2.483740   -2.050550
     35          1           0       -2.058512   -2.759655    1.606421
     36          1           0       -3.432813   -1.801339    1.012720
     37          1           0       -3.091039   -4.780127    0.842792
     38          1           0       -4.495278   -3.824098    0.263906
     39          1           0       -3.601039   -4.873654   -0.856250
 ---------------------------------------------------------------------

 SCF Done:  E(UCAM-B3LYP) =  -1938.44385885     A.U. after   34 cycles

 Alpha  occ. eigenvalues --  -24.85856 -24.85308 -24.85208 -24.85192 -24.85057
 Alpha  occ. eigenvalues --  -24.84627 -24.84165 -24.83888 -24.83811 -19.37370
 Alpha  occ. eigenvalues --  -19.36944 -19.34458 -19.29455 -19.28153 -19.28001
 Alpha  occ. eigenvalues --  -14.56573 -14.55711 -14.55702 -10.61389 -10.56421
 Alpha  occ. eigenvalues --  -10.56149 -10.51414 -10.50108 -10.49969 -10.49944
 Alpha  occ. eigenvalues --  -10.43655 -10.43480 -10.37001 -10.36812  -1.45115
 Alpha  occ. eigenvalues --   -1.42902  -1.41094  -1.36736  -1.35794  -1.35182
 Alpha  occ. eigenvalues --   -1.34278  -1.33290  -1.32985  -1.27521  -1.24741
 Alpha  occ. eigenvalues --   -1.23783  -1.22318  -1.21963  -1.21318  -1.13667
 Alpha  occ. eigenvalues --   -1.11559  -1.10726  -0.95056  -0.91952  -0.89531
 Alpha  occ. eigenvalues --   -0.87831  -0.83942  -0.83784  -0.82882  -0.81258
 Alpha  occ. eigenvalues --   -0.79732  -0.79078  -0.77235  -0.75311  -0.72869
 Alpha  occ. eigenvalues --   -0.72428  -0.72198  -0.71076  -0.70182  -0.69479
 Alpha  occ. eigenvalues --   -0.69075  -0.67708  -0.67402  -0.65913  -0.65715
 Alpha  occ. eigenvalues --   -0.65108  -0.64667  -0.63890  -0.62692  -0.61039
 Alpha  occ. eigenvalues --   -0.60409  -0.59374  -0.59018  -0.58449  -0.58209
 Alpha  occ. eigenvalues --   -0.57978  -0.57412  -0.57175  -0.56987  -0.56518
 Alpha  occ. eigenvalues --   -0.56120  -0.56001  -0.55626  -0.55542  -0.54934
 Alpha  occ. eigenvalues --   -0.54583  -0.54028  -0.53931  -0.53792  -0.52895
 Alpha  occ. eigenvalues --   -0.52179  -0.51975  -0.51557  -0.51211  -0.50330
 Alpha  occ. eigenvalues --   -0.49880  -0.49794  -0.49118  -0.48878  -0.45571
 Alpha  occ. eigenvalues --   -0.45313  -0.44990  -0.44294  -0.43461  -0.43039
 Alpha  occ. eigenvalues --   -0.42456  -0.42201  -0.40242
 Alpha virt. eigenvalues --   -0.03434  -0.02882   0.03339   0.04971   0.06450
 Alpha virt. eigenvalues --    0.08644   0.10557   0.11918   0.12156   0.13049
 Alpha virt. eigenvalues --    0.13235   0.13787   0.14846   0.15289   0.15765

  Beta  occ. eigenvalues --  -24.85856 -24.85308 -24.85207 -24.85192 -24.85056
  Beta  occ. eigenvalues --  -24.84627 -24.84165 -24.83888 -24.83811 -19.36386
  Beta  occ. eigenvalues --  -19.35994 -19.34456 -19.29254 -19.28098 -19.27954
  Beta  occ. eigenvalues --  -14.56568 -14.55710 -14.55701 -10.61390 -10.56421
  Beta  occ. eigenvalues --  -10.56150 -10.51414 -10.50125 -10.49974 -10.49950
  Beta  occ. eigenvalues --  -10.43645 -10.43469 -10.37007 -10.36817  -1.45114
  Beta  occ. eigenvalues --   -1.42902  -1.41092  -1.36735  -1.35794  -1.35182
  Beta  occ. eigenvalues --   -1.34276  -1.33289  -1.32984  -1.27292  -1.23294
  Beta  occ. eigenvalues --   -1.22560  -1.22147  -1.21319  -1.20833  -1.13512
  Beta  occ. eigenvalues --   -1.11411  -1.10539  -0.95040  -0.91715  -0.89306
  Beta  occ. eigenvalues --   -0.87776  -0.83824  -0.83615  -0.82584  -0.80895
  Beta  occ. eigenvalues --   -0.79360  -0.78584  -0.77171  -0.75219  -0.72846
  Beta  occ. eigenvalues --   -0.72403  -0.72137  -0.71058  -0.70152  -0.69452
  Beta  occ. eigenvalues --   -0.68998  -0.67496  -0.67198  -0.65784  -0.65159
  Beta  occ. eigenvalues --   -0.64792  -0.62490  -0.62386  -0.61553  -0.61010
  Beta  occ. eigenvalues --   -0.60262  -0.59364  -0.58980  -0.58241  -0.57969
  Beta  occ. eigenvalues --   -0.57814  -0.57295  -0.57128  -0.56913  -0.56265
  Beta  occ. eigenvalues --   -0.56001  -0.55846  -0.55404  -0.55157  -0.54860
  Beta  occ. eigenvalues --   -0.54550  -0.53953  -0.53138  -0.52927  -0.52872
  Beta  occ. eigenvalues --   -0.52163  -0.51971  -0.51551  -0.51209  -0.50314
  Beta  occ. eigenvalues --   -0.49871  -0.49765  -0.48507  -0.48284  -0.45205
  Beta  occ. eigenvalues --   -0.43568  -0.43411  -0.42750  -0.42386  -0.41993
  Beta  occ. eigenvalues --   -0.39787  -0.34539
  Beta virt. eigenvalues --   -0.28488  -0.03340  -0.02829   0.03409   0.05008
  Beta virt. eigenvalues --    0.06574   0.08802   0.10647   0.12042   0.12449
  Beta virt. eigenvalues --    0.13308   0.13561   0.14179   0.15019   0.15469

 Mulliken charges and spin densities:
               1          2
     1  C   -0.128806  -0.011524
     2  O   -0.331111   0.359357
     3  C    0.168284  -0.006332
     4  N   -0.605730   0.003482
     5  C    0.886989  -0.010599
     6  O   -0.479722   0.072441
     7  N   -0.610465   0.003852
     8  C    0.167263  -0.005765
     9  O   -0.336826   0.346812
    10  C   -0.127324  -0.011245
    11  C    0.891412  -0.003571
    12  O   -0.476142   0.019163
    13  N   -0.662257   0.002182
    14  C    0.802582  -0.000193
    15  F   -0.261395   0.000220
    16  F   -0.264309   0.000199
    17  C    0.432740  -0.000048
    18  F   -0.276361   0.000129
    19  O   -0.486496   0.000489
    20  C    0.989863  -0.000034
    21  F   -0.236512   0.000023
    22  F   -0.235218   0.000003
    23  F   -0.252535  -0.000002
    24  C    0.808908  -0.000022
    25  F   -0.252298   0.000001
    26  F   -0.237385   0.000006
    27  F   -0.245708   0.000003
    28  C    0.873834  -0.003091
    29  O   -0.485637   0.016587
    30  H    0.183964   0.030945
    31  H    0.186410  -0.000488
    32  H    0.186258   0.030687
    33  H    0.214433   0.024496
    34  H    0.219528   0.030467
    35  H    0.218426   0.029063
    36  H    0.210965   0.023467
    37  H    0.183975   0.029683
    38  H    0.181513   0.029622
    39  H    0.184889  -0.000466
 Sum of Mulliken charges =   1.00000   1.00000

 Dipole moment (field-independent basis, Debye):
    X=            -14.1938    Y=              0.8355    Z=             -1.5252  Tot=             14.2999
 Quadrupole moment (field-independent basis, Debye-Ang):
   XX=           -126.7360   YY=            -94.1693   ZZ=           -148.6248
   XY=             11.4734   XZ=              2.3299   YZ=            -11.1482

 Normal termination of Gaussian 09 at Sun Mar  3 17:44:43 2024.
