 Gaussian 09, Revision D.01,
 Gaussian 09:  ES64L-G09RevD.01 24-Apr-2013

 ----------------------------------------------------------------------
 #p CAM-B3LYP/6-31G(d,p) SCRF=(PCM,Solvent=Generic,Read) NoSymm out=wfn
 ----------------------------------------------------------------------

 -------------------
 Title A1386248942_0
 -------------------
 Symbolic Z-matrix:
 Charge =  0 Multiplicity = 1

                          Input orientation:
 ---------------------------------------------------------------------
 Center     Atomic      Atomic             Coordinates (Angstroms)
 Number     Number       Type             X           Y           Z
 ---------------------------------------------------------------------
      1          6           0       -2.257954    4.278321   -0.634821
      2          8           0       -1.769339    3.017661   -0.198618
      3          6           0       -1.682604    2.091865   -1.280080
      4          7           0       -1.173474    0.848446   -0.744030
      5          6           0       -2.086057   -0.079499   -0.299239
      6          8           0       -3.301426    0.086067   -0.417875
      7          7           0       -1.552072   -1.199445    0.291715
      8          6           0       -2.463143   -2.230640    0.736241
      9          8           0       -2.632830   -3.143089   -0.347103
     10          6           0       -3.503725   -4.208469    0.005908
     11          6           0       -0.203226   -1.398600    0.479067
     12          8           0        0.212523   -2.356144    1.133738
     13          7           0        0.646911   -0.464469   -0.079989
     14          6           0        2.069249   -0.754194    0.090236
     15          9           0        2.321799   -0.846934    1.429676
     16          9           0        2.260009   -2.017325   -0.404778
     17          6           0        3.185030    0.135177   -0.534422
     18          9           0        2.976831    0.187048   -1.898405
     19          8           0        3.315136    1.510580   -0.148647
     20          6           0        3.189351    1.760415    1.222963
     21          9           0        4.056805    1.013147    1.917014
     22          9           0        3.455048    3.058236    1.455807
     23          9           0        1.934998    1.496696    1.626077
     24          6           0        4.507233   -0.628922   -0.334583
     25          9           0        5.562850    0.126344   -0.737440
     26          9           0        4.747073   -0.974649    0.946786
     27          9           0        4.558148   -1.768409   -1.064478
     28          6           0        0.189527    0.684697   -0.663119
     29          8           0        0.950619    1.543742   -1.100228
     30          1           0       -3.264360    4.176204   -1.052173
     31          1           0       -2.304756    4.946970    0.228872
     32          1           0       -1.583635    4.714789   -1.377966
     33          1           0       -2.673164    1.949517   -1.726519
     34          1           0       -1.008695    2.483740   -2.050550
     35          1           0       -2.058512   -2.759655    1.606421
     36          1           0       -3.432813   -1.801339    1.012720
     37          1           0       -3.091039   -4.780127    0.842792
     38          1           0       -4.495278   -3.824098    0.263906
     39          1           0       -3.601039   -4.873654   -0.856250
 ---------------------------------------------------------------------

 SCF Done:  E(RCAM-B3LYP) =  -1938.75259010     A.U. after   13 cycles

 Alpha  occ. eigenvalues --  -24.83753 -24.83600 -24.83459 -24.82683 -24.82603
 Alpha  occ. eigenvalues --  -24.82542 -24.82541 -24.82322 -24.82315 -19.32413
 Alpha  occ. eigenvalues --  -19.23666 -19.23660 -19.23624 -19.23510 -19.23167
 Alpha  occ. eigenvalues --  -14.52695 -14.50332 -14.50300 -10.59506 -10.54741
 Alpha  occ. eigenvalues --  -10.53439 -10.49286 -10.45609 -10.45602 -10.44610
 Alpha  occ. eigenvalues --  -10.36256 -10.36232 -10.30616 -10.30608  -1.43247
 Alpha  occ. eigenvalues --   -1.41237  -1.38689  -1.34665  -1.33875  -1.33354
 Alpha  occ. eigenvalues --   -1.32140  -1.31644  -1.31275  -1.22392  -1.20191
 Alpha  occ. eigenvalues --   -1.17573  -1.16994  -1.13135  -1.12752  -1.09063
 Alpha  occ. eigenvalues --   -1.06516  -1.04884  -0.92730  -0.86142  -0.83523
 Alpha  occ. eigenvalues --   -0.83367  -0.81771  -0.78864  -0.77704  -0.75896
 Alpha  occ. eigenvalues --   -0.74611  -0.74299  -0.72576  -0.72288  -0.70790
 Alpha  occ. eigenvalues --   -0.70415  -0.69179  -0.68886  -0.67879  -0.67039
 Alpha  occ. eigenvalues --   -0.66575  -0.63651  -0.62286  -0.61819  -0.59101
 Alpha  occ. eigenvalues --   -0.58474  -0.57802  -0.57449  -0.57076  -0.56632
 Alpha  occ. eigenvalues --   -0.56341  -0.56111  -0.55711  -0.55552  -0.55382
 Alpha  occ. eigenvalues --   -0.54867  -0.54460  -0.53651  -0.53425  -0.53213
 Alpha  occ. eigenvalues --   -0.52876  -0.52522  -0.52264  -0.51242  -0.50898
 Alpha  occ. eigenvalues --   -0.50614  -0.50231  -0.50126  -0.49583  -0.49153
 Alpha  occ. eigenvalues --   -0.49105  -0.48649  -0.48545  -0.47978  -0.47873
 Alpha  occ. eigenvalues --   -0.47239  -0.47183  -0.42881  -0.40829  -0.40726
 Alpha  occ. eigenvalues --   -0.39439  -0.38894  -0.38772  -0.37250  -0.37146
 Alpha  occ. eigenvalues --   -0.35663  -0.33496  -0.33245
 Alpha virt. eigenvalues --    0.01169   0.01610   0.06303   0.07769   0.10962
 Alpha virt. eigenvalues --    0.13608   0.14949   0.16748   0.16944   0.17674
 Alpha virt. eigenvalues --    0.18515   0.19054   0.19228   0.19783   0.19936

 Mulliken charges:
               1
     1  C   -0.081269
     2  O   -0.501103
     3  C    0.212609
     4  N   -0.596690
     5  C    0.848643
     6  O   -0.515854
     7  N   -0.601254
     8  C    0.209452
     9  O   -0.500905
    10  C   -0.081265
    11  C    0.867738
    12  O   -0.502366
    13  N   -0.658178
    14  C    0.799344
    15  F   -0.267407
    16  F   -0.269592
    17  C    0.434312
    18  F   -0.278458
    19  O   -0.487419
    20  C    0.988053
    21  F   -0.239940
    22  F   -0.238084
    23  F   -0.249171
    24  C    0.804017
    25  F   -0.255966
    26  F   -0.239290
    27  F   -0.247632
    28  C    0.850467
    29  O   -0.508400
    30  H    0.113495
    31  H    0.133913
    32  H    0.114474
    33  H    0.146945
    34  H    0.143718
    35  H    0.145784
    36  H    0.145346
    37  H    0.114456
    38  H    0.113525
    39  H    0.133953
 Sum of Mulliken charges =   0.00000

 Dipole moment (field-independent basis, Debye):
    X=             -4.0559    Y=              0.9041    Z=             -0.2432  Tot=              4.1626
 Quadrupole moment (field-independent basis, Debye-Ang):
   XX=           -162.6311   YY=           -147.1143   ZZ=           -155.7629
   XY=              4.7591   XZ=             -0.0235   YZ=             -3.9948

 Normal termination of Gaussian 09 at Sun Mar  3 17:43:38 2024.
