 Gaussian 09, Revision D.01,
 Gaussian 09:  ES64L-G09RevD.01 24-Apr-2013

 ----------------------------------------------------------------------
 #p CAM-B3LYP/6-31G(d,p) SCRF=(PCM,Solvent=Generic,Read) NoSymm out=wfn
 ----------------------------------------------------------------------

 ------------------
 Title A154147351_0
 ------------------
 Symbolic Z-matrix:
 Charge =  0 Multiplicity = 1

                          Input orientation:
 ---------------------------------------------------------------------
 Center     Atomic      Atomic             Coordinates (Angstroms)
 Number     Number       Type             X           Y           Z
 ---------------------------------------------------------------------
      1          8           0       -2.547001    0.356716   -1.312435
      2          6           0       -1.376687    0.302239   -0.942224
      3          7           0       -0.348436    0.010515   -1.816407
      4          6           0       -0.606929    0.051192   -3.262017
      5          6           0        0.028807    1.251061   -3.959288
      6         35           0       -0.756594    2.923907   -3.340341
      7          6           0        0.904121   -0.370835   -1.387964
      8          8           0        1.827754   -0.538965   -2.181663
      9          7           0        1.053519   -0.546766   -0.036031
     10          6           0        2.331005   -1.067202    0.440564
     11          9           0        2.172765   -1.666912    1.655568
     12          9           0        2.653208   -2.127286   -0.365775
     13          6           0        3.545133   -0.102151    0.494470
     14          9           0        4.664234   -0.809264    0.848330
     15          8           0        3.807875    0.571632   -0.743286
     16          6           0        4.802950   -0.074450   -1.497831
     17          9           0        4.597109   -1.398520   -1.559279
     18          9           0        6.008804    0.177007   -0.956571
     19          9           0        4.784937    0.430223   -2.746700
     20          6           0        3.301670    0.946703    1.569833
     21          9           0        2.241950    1.732660    1.259092
     22          9           0        3.093254    0.419534    2.791031
     23          9           0        4.370393    1.778077    1.676473
     24          6           0        0.156093   -0.036682    0.868203
     25          8           0        0.386406   -0.053749    2.073450
     26          7           0       -1.000365    0.499269    0.362809
     27          6           0       -2.024342    0.923172    1.311333
     28          9           0       -2.859001    1.809089    0.695653
     29          9           0       -1.428199    1.675405    2.279641
     30          6           0       -2.846571   -0.226125    1.948112
     31          9           0       -2.014139   -1.005782    2.699292
     32          8           0       -3.337739   -1.091011    0.917645
     33          6           0       -4.292243   -2.012220    1.374364
     34          9           0       -3.903929   -2.577078    2.527480
     35          9           0       -5.471352   -1.391539    1.532762
     36          9           0       -4.430156   -2.976201    0.445313
     37          6           0       -3.879996    0.462169    2.851006
     38          9           0       -4.789142    1.160662    2.134929
     39          9           0       -4.575732   -0.440073    3.585026
     40          9           0       -3.321012    1.314600    3.736739
     41          1           0       -0.192796   -0.865870   -3.699127
     42          1           0       -1.684507    0.036030   -3.458639
     43          1           0        1.102675    1.333509   -3.775805
     44          1           0       -0.147796    1.213308   -5.037735
 ---------------------------------------------------------------------

 SCF Done:  E(RCAM-B3LYP) =  -5406.31413910     A.U. after   13 cycles

 Alpha  occ. eigenvalues -- -482.97312 -61.93243 -56.45369 -56.45002 -56.44987
 Alpha  occ. eigenvalues --  -24.84138 -24.83893 -24.83814 -24.83683 -24.83598
 Alpha  occ. eigenvalues --  -24.83489 -24.83458 -24.83206 -24.83185 -24.83180
 Alpha  occ. eigenvalues --  -24.83154 -24.83099 -24.83054 -24.82988 -24.82851
 Alpha  occ. eigenvalues --  -24.82782 -24.82745 -24.82313 -19.33244 -19.32634
 Alpha  occ. eigenvalues --  -19.24648 -19.24446 -19.24346 -14.53646 -14.53305
 Alpha  occ. eigenvalues --  -14.51189 -10.59762 -10.59289 -10.55554 -10.55400
 Alpha  occ. eigenvalues --  -10.53668 -10.53655 -10.49287 -10.49207 -10.47183
 Alpha  occ. eigenvalues --  -10.46382 -10.46138 -10.33637 -10.33021  -8.65446
 Alpha  occ. eigenvalues --   -6.60979  -6.59723  -6.59694  -2.72741  -2.72389
 Alpha  occ. eigenvalues --   -2.72367  -2.71370  -2.71369  -1.43417  -1.42695
 Alpha  occ. eigenvalues --   -1.41904  -1.41880  -1.39298  -1.39176  -1.36262
 Alpha  occ. eigenvalues --   -1.35884  -1.33739  -1.33471  -1.33208  -1.33059
 Alpha  occ. eigenvalues --   -1.32916  -1.32488  -1.32264  -1.32247  -1.31777
 Alpha  occ. eigenvalues --   -1.31450  -1.23800  -1.20821  -1.20430  -1.18472
 Alpha  occ. eigenvalues --   -1.18199  -1.10478  -1.09015  -1.07196  -0.94378
 Alpha  occ. eigenvalues --   -0.93594  -0.91651  -0.86499  -0.84481  -0.84259
 Alpha  occ. eigenvalues --   -0.82265  -0.80802  -0.79892  -0.79297  -0.77066
 Alpha  occ. eigenvalues --   -0.75970  -0.75074  -0.74080  -0.73040  -0.72568
 Alpha  occ. eigenvalues --   -0.71796  -0.71358  -0.70759  -0.70679  -0.69925
 Alpha  occ. eigenvalues --   -0.69413  -0.69100  -0.68643  -0.68114  -0.67849
 Alpha  occ. eigenvalues --   -0.67376  -0.66757  -0.66516  -0.66421  -0.65033
 Alpha  occ. eigenvalues --   -0.64344  -0.62776  -0.60354  -0.60092  -0.59437
 Alpha  occ. eigenvalues --   -0.57797  -0.57565  -0.57381  -0.57130  -0.56739
 Alpha  occ. eigenvalues --   -0.56560  -0.56320  -0.56250  -0.56093  -0.55755
 Alpha  occ. eigenvalues --   -0.55517  -0.55097  -0.54993  -0.54876  -0.54771
 Alpha  occ. eigenvalues --   -0.54500  -0.54362  -0.53819  -0.53571  -0.53430
 Alpha  occ. eigenvalues --   -0.53013  -0.52769  -0.52621  -0.52385  -0.52279
 Alpha  occ. eigenvalues --   -0.51782  -0.51525  -0.51411  -0.50991  -0.50865
 Alpha  occ. eigenvalues --   -0.50822  -0.50598  -0.50391  -0.50037  -0.50002
 Alpha  occ. eigenvalues --   -0.49717  -0.49523  -0.49196  -0.49091  -0.49027
 Alpha  occ. eigenvalues --   -0.48891  -0.48120  -0.47911  -0.45984  -0.44836
 Alpha  occ. eigenvalues --   -0.43558  -0.43171  -0.40571  -0.40048  -0.39474
 Alpha  occ. eigenvalues --   -0.38611  -0.37670  -0.36329  -0.34695  -0.34262
 Alpha virt. eigenvalues --   -0.00169   0.00407   0.05155   0.05409   0.06167
 Alpha virt. eigenvalues --    0.06705   0.08304   0.10526   0.13380   0.14370
 Alpha virt. eigenvalues --    0.14937   0.16141   0.17190   0.17908   0.18780

 Mulliken charges:
               1
     1  O   -0.490503
     2  C    0.849848
     3  N   -0.584640
     4  C   -0.069824
     5  C   -0.206932
     6  Br  -0.159595
     7  C    0.862569
     8  O   -0.503071
     9  N   -0.650178
    10  C    0.753147
    11  F   -0.243809
    12  F   -0.261112
    13  C    0.433298
    14  F   -0.269541
    15  O   -0.527268
    16  C    1.029907
    17  F   -0.249232
    18  F   -0.250286
    19  F   -0.247455
    20  C    0.816175
    21  F   -0.249956
    22  F   -0.234501
    23  F   -0.252696
    24  C    0.853036
    25  O   -0.492302
    26  N   -0.651193
    27  C    0.763086
    28  F   -0.252010
    29  F   -0.253491
    30  C    0.436112
    31  F   -0.256223
    32  O   -0.505632
    33  C    0.996245
    34  F   -0.242452
    35  F   -0.242168
    36  F   -0.239539
    37  C    0.814691
    38  F   -0.245399
    39  F   -0.258933
    40  F   -0.242948
    41  H    0.171173
    42  H    0.187202
    43  H    0.185610
    44  H    0.180789
 Sum of Mulliken charges =   0.00000

 Dipole moment (field-independent basis, Debye):
    X=              0.0396    Y=             -1.8017    Z=             -3.2635  Tot=              3.7280
 Quadrupole moment (field-independent basis, Debye-Ang):
   XX=           -237.4271   YY=           -228.9933   ZZ=           -219.4077
   XY=              5.1266   XZ=             -0.1702   YZ=              3.8565

 Normal termination of Gaussian 09 at Sun Mar  3 18:18:11 2024.
