 Gaussian 09, Revision D.01,
 Gaussian 09:  ES64L-G09RevD.01 24-Apr-2013

 ----------------------------------------------------------------------
 #p CAM-B3LYP/6-31G(d,p) SCRF=(PCM,Solvent=Generic,Read) NoSymm out=wfn
 ----------------------------------------------------------------------

 -------------------
 Title A154147351_p1
 -------------------
 Symbolic Z-matrix:
 Charge =  1 Multiplicity = 2

                          Input orientation:
 ---------------------------------------------------------------------
 Center     Atomic      Atomic             Coordinates (Angstroms)
 Number     Number       Type             X           Y           Z
 ---------------------------------------------------------------------
      1          8           0       -2.547001    0.356716   -1.312435
      2          6           0       -1.376687    0.302239   -0.942224
      3          7           0       -0.348436    0.010515   -1.816407
      4          6           0       -0.606929    0.051192   -3.262017
      5          6           0        0.028807    1.251061   -3.959288
      6         35           0       -0.756594    2.923907   -3.340341
      7          6           0        0.904121   -0.370835   -1.387964
      8          8           0        1.827754   -0.538965   -2.181663
      9          7           0        1.053519   -0.546766   -0.036031
     10          6           0        2.331005   -1.067202    0.440564
     11          9           0        2.172765   -1.666912    1.655568
     12          9           0        2.653208   -2.127286   -0.365775
     13          6           0        3.545133   -0.102151    0.494470
     14          9           0        4.664234   -0.809264    0.848330
     15          8           0        3.807875    0.571632   -0.743286
     16          6           0        4.802950   -0.074450   -1.497831
     17          9           0        4.597109   -1.398520   -1.559279
     18          9           0        6.008804    0.177007   -0.956571
     19          9           0        4.784937    0.430223   -2.746700
     20          6           0        3.301670    0.946703    1.569833
     21          9           0        2.241950    1.732660    1.259092
     22          9           0        3.093254    0.419534    2.791031
     23          9           0        4.370393    1.778077    1.676473
     24          6           0        0.156093   -0.036682    0.868203
     25          8           0        0.386406   -0.053749    2.073450
     26          7           0       -1.000365    0.499269    0.362809
     27          6           0       -2.024342    0.923172    1.311333
     28          9           0       -2.859001    1.809089    0.695653
     29          9           0       -1.428199    1.675405    2.279641
     30          6           0       -2.846571   -0.226125    1.948112
     31          9           0       -2.014139   -1.005782    2.699292
     32          8           0       -3.337739   -1.091011    0.917645
     33          6           0       -4.292243   -2.012220    1.374364
     34          9           0       -3.903929   -2.577078    2.527480
     35          9           0       -5.471352   -1.391539    1.532762
     36          9           0       -4.430156   -2.976201    0.445313
     37          6           0       -3.879996    0.462169    2.851006
     38          9           0       -4.789142    1.160662    2.134929
     39          9           0       -4.575732   -0.440073    3.585026
     40          9           0       -3.321012    1.314600    3.736739
     41          1           0       -0.192796   -0.865870   -3.699127
     42          1           0       -1.684507    0.036030   -3.458639
     43          1           0        1.102675    1.333509   -3.775805
     44          1           0       -0.147796    1.213308   -5.037735
 ---------------------------------------------------------------------

 SCF Done:  E(UCAM-B3LYP) =  -5405.99633494     A.U. after   31 cycles

 Alpha  occ. eigenvalues -- -483.16246 -62.11987 -56.64225 -56.63961 -56.63601
 Alpha  occ. eigenvalues --  -24.85973 -24.85963 -24.85808 -24.85346 -24.85301
 Alpha  occ. eigenvalues --  -24.85244 -24.85209 -24.85173 -24.85065 -24.85048
 Alpha  occ. eigenvalues --  -24.85016 -24.84981 -24.84871 -24.84746 -24.84575
 Alpha  occ. eigenvalues --  -24.84507 -24.84420 -24.84299 -19.35108 -19.34765
 Alpha  occ. eigenvalues --  -19.29297 -19.29246 -19.27338 -14.56957 -14.56912
 Alpha  occ. eigenvalues --  -14.56673 -10.61331 -10.61176 -10.57279 -10.57171
 Alpha  occ. eigenvalues --  -10.56206 -10.56025 -10.51352 -10.51174 -10.50692
 Alpha  occ. eigenvalues --  -10.50585 -10.50125 -10.43084 -10.40599  -8.84211
 Alpha  occ. eigenvalues --   -6.79807  -6.79086  -6.77866  -2.91661  -2.91597
 Alpha  occ. eigenvalues --   -2.90632  -2.90159  -2.89961  -1.44919  -1.44541
 Alpha  occ. eigenvalues --   -1.43754  -1.43476  -1.41676  -1.41326  -1.38117
 Alpha  occ. eigenvalues --   -1.37699  -1.35195  -1.35114  -1.35013  -1.34886
 Alpha  occ. eigenvalues --   -1.34751  -1.34300  -1.34039  -1.33888  -1.33736
 Alpha  occ. eigenvalues --   -1.33565  -1.27714  -1.23055  -1.22572  -1.22222
 Alpha  occ. eigenvalues --   -1.22068  -1.14328  -1.12517  -1.12106  -1.05226
 Alpha  occ. eigenvalues --   -0.96676  -0.95689  -0.94024  -0.88755  -0.87698
 Alpha  occ. eigenvalues --   -0.85035  -0.84106  -0.82837  -0.82431  -0.80661
 Alpha  occ. eigenvalues --   -0.79362  -0.78093  -0.77823  -0.75576  -0.74874
 Alpha  occ. eigenvalues --   -0.74479  -0.73783  -0.72766  -0.72425  -0.71945
 Alpha  occ. eigenvalues --   -0.71218  -0.71105  -0.70384  -0.70207  -0.69884
 Alpha  occ. eigenvalues --   -0.69421  -0.69031  -0.68731  -0.68382  -0.67452
 Alpha  occ. eigenvalues --   -0.67136  -0.66542  -0.65647  -0.63169  -0.61991
 Alpha  occ. eigenvalues --   -0.61901  -0.61680  -0.60562  -0.59513  -0.59246
 Alpha  occ. eigenvalues --   -0.58966  -0.58849  -0.58757  -0.58450  -0.58373
 Alpha  occ. eigenvalues --   -0.57991  -0.57969  -0.57671  -0.57448  -0.57419
 Alpha  occ. eigenvalues --   -0.57170  -0.57026  -0.56840  -0.56750  -0.56142
 Alpha  occ. eigenvalues --   -0.55729  -0.55527  -0.55263  -0.54977  -0.54471
 Alpha  occ. eigenvalues --   -0.54265  -0.54163  -0.53714  -0.53561  -0.53388
 Alpha  occ. eigenvalues --   -0.53102  -0.52941  -0.52753  -0.52676  -0.52363
 Alpha  occ. eigenvalues --   -0.52227  -0.52037  -0.51784  -0.51597  -0.51442
 Alpha  occ. eigenvalues --   -0.51131  -0.50938  -0.50870  -0.50584  -0.50149
 Alpha  occ. eigenvalues --   -0.48888  -0.48001  -0.46775  -0.45926  -0.44750
 Alpha  occ. eigenvalues --   -0.43601  -0.43122  -0.42650  -0.41698  -0.40049
 Alpha virt. eigenvalues --   -0.06353  -0.04340  -0.02998   0.03117   0.03611
 Alpha virt. eigenvalues --    0.04319   0.05323   0.07571   0.08580   0.10538
 Alpha virt. eigenvalues --    0.10979   0.11715   0.13023   0.14238   0.14577

  Beta  occ. eigenvalues -- -483.16025 -62.11856 -56.63863 -56.63740 -56.63507
  Beta  occ. eigenvalues --  -24.85973 -24.85963 -24.85808 -24.85346 -24.85301
  Beta  occ. eigenvalues --  -24.85244 -24.85209 -24.85173 -24.85065 -24.85048
  Beta  occ. eigenvalues --  -24.85015 -24.84981 -24.84871 -24.84746 -24.84573
  Beta  occ. eigenvalues --  -24.84507 -24.84420 -24.84299 -19.35107 -19.34765
  Beta  occ. eigenvalues --  -19.29208 -19.29133 -19.27341 -14.56911 -14.56835
  Beta  occ. eigenvalues --  -14.56678 -10.61331 -10.61176 -10.57279 -10.57171
  Beta  occ. eigenvalues --  -10.56206 -10.56026 -10.51352 -10.51174 -10.50715
  Beta  occ. eigenvalues --  -10.50616 -10.50126 -10.43041 -10.40563  -8.83858
  Beta  occ. eigenvalues --   -6.78912  -6.78861  -6.77696  -2.91073  -2.91053
  Beta  occ. eigenvalues --   -2.90096  -2.90045  -2.89747  -1.44918  -1.44540
  Beta  occ. eigenvalues --   -1.43754  -1.43476  -1.41676  -1.41324  -1.38117
  Beta  occ. eigenvalues --   -1.37698  -1.35194  -1.35114  -1.35013  -1.34886
  Beta  occ. eigenvalues --   -1.34751  -1.34300  -1.34038  -1.33888  -1.33736
  Beta  occ. eigenvalues --   -1.33563  -1.27642  -1.22982  -1.22567  -1.22168
  Beta  occ. eigenvalues --   -1.21994  -1.14186  -1.12470  -1.11933  -1.02785
  Beta  occ. eigenvalues --   -0.96559  -0.95682  -0.92964  -0.88684  -0.87675
  Beta  occ. eigenvalues --   -0.84592  -0.84093  -0.82829  -0.82407  -0.80461
  Beta  occ. eigenvalues --   -0.79327  -0.77911  -0.77810  -0.75518  -0.74871
  Beta  occ. eigenvalues --   -0.74471  -0.73783  -0.72762  -0.72422  -0.71926
  Beta  occ. eigenvalues --   -0.71218  -0.71095  -0.70365  -0.70205  -0.69871
  Beta  occ. eigenvalues --   -0.69409  -0.69001  -0.68713  -0.68382  -0.67367
  Beta  occ. eigenvalues --   -0.67036  -0.66514  -0.65115  -0.62443  -0.61956
  Beta  occ. eigenvalues --   -0.61866  -0.61520  -0.60376  -0.59481  -0.59189
  Beta  occ. eigenvalues --   -0.58911  -0.58742  -0.58574  -0.58321  -0.58232
  Beta  occ. eigenvalues --   -0.57952  -0.57933  -0.57619  -0.57394  -0.57180
  Beta  occ. eigenvalues --   -0.57004  -0.56892  -0.56826  -0.56645  -0.55912
  Beta  occ. eigenvalues --   -0.55704  -0.55521  -0.55127  -0.54870  -0.54432
  Beta  occ. eigenvalues --   -0.54235  -0.54154  -0.53620  -0.53537  -0.53263
  Beta  occ. eigenvalues --   -0.53034  -0.52868  -0.52712  -0.52465  -0.52255
  Beta  occ. eigenvalues --   -0.52024  -0.51774  -0.51591  -0.51435  -0.51127
  Beta  occ. eigenvalues --   -0.50935  -0.50868  -0.50583  -0.50119  -0.47995
  Beta  occ. eigenvalues --   -0.47742  -0.46763  -0.45900  -0.44515  -0.43458
  Beta  occ. eigenvalues --   -0.42909  -0.41840  -0.41618  -0.39925
  Beta virt. eigenvalues --   -0.29256  -0.05627  -0.04162  -0.02894   0.03119
  Beta virt. eigenvalues --    0.03653   0.04327   0.05357   0.07594   0.08765
  Beta virt. eigenvalues --    0.10632   0.11025   0.11841   0.13136   0.14310

 Mulliken charges and spin densities:
               1          2
     1  O   -0.464033   0.043001
     2  C    0.850169  -0.019486
     3  N   -0.582188   0.057302
     4  C   -0.100910   0.014517
     5  C   -0.257112  -0.000140
     6  Br   0.519037   0.835152
     7  C    0.877711  -0.014025
     8  O   -0.481422   0.033155
     9  N   -0.650881   0.000762
    10  C    0.755785  -0.000182
    11  F   -0.237365   0.000067
    12  F   -0.257090   0.000465
    13  C    0.435046  -0.000005
    14  F   -0.263544   0.000015
    15  O   -0.534347   0.000007
    16  C    1.031180  -0.000043
    17  F   -0.247268   0.000012
    18  F   -0.246242   0.000000
    19  F   -0.248479   0.000001
    20  C    0.818009  -0.000002
    21  F   -0.253971   0.000004
    22  F   -0.230803  -0.000001
    23  F   -0.249489   0.000000
    24  C    0.859471   0.000036
    25  O   -0.472723  -0.001154
    26  N   -0.653669  -0.001463
    27  C    0.762199   0.000041
    28  F   -0.252321   0.000001
    29  F   -0.248183  -0.000002
    30  C    0.438672  -0.000047
    31  F   -0.252607   0.000012
    32  O   -0.510711   0.000172
    33  C    0.998691   0.000012
    34  F   -0.239785   0.000024
    35  F   -0.240377   0.000004
    36  F   -0.238400   0.000000
    37  C    0.818048  -0.000019
    38  F   -0.245299   0.000001
    39  F   -0.255474  -0.000003
    40  F   -0.241172   0.000000
    41  H    0.235725   0.008568
    42  H    0.228109   0.002337
    43  H    0.268373   0.037169
    44  H    0.259643   0.003735
 Sum of Mulliken charges =   1.00000   1.00000

 Dipole moment (field-independent basis, Debye):
    X=             -2.3727    Y=              8.0609    Z=            -17.7547  Tot=             19.6428
 Quadrupole moment (field-independent basis, Debye-Ang):
   XX=           -225.3960   YY=           -194.9235   ZZ=           -161.7989
   XY=             -1.7792   XZ=              7.8963   YZ=            -30.8200

 Normal termination of Gaussian 09 at Sun Mar  3 18:21:00 2024.
