 Gaussian 09, Revision D.01,
 Gaussian 09:  ES64L-G09RevD.01 24-Apr-2013

 ----------------------------------------------------------------------
 #p CAM-B3LYP/6-31G(d,p) SCRF=(PCM,Solvent=Generic,Read) NoSymm out=wfn
 ----------------------------------------------------------------------

 ---------------------
 Title AEPYridine2_neu
 ---------------------
 Symbolic Z-matrix:
 Charge =  0 Multiplicity = 1

                          Input orientation:
 ---------------------------------------------------------------------
 Center     Atomic      Atomic             Coordinates (Angstroms)
 Number     Number       Type             X           Y           Z
 ---------------------------------------------------------------------
      1          9           0       -3.255928    1.230686    3.024170
      2          6           0       -2.832206    1.585442    1.793003
      3          9           0       -2.310437    2.826846    1.894098
      4          6           0       -3.914307    1.482663    0.739883
      5          9           0       -5.126507    1.909647    1.129302
      6          9           0       -3.565126    2.260620   -0.326046
      7          6           0       -3.843282    0.040161    0.327572
      8          9           0       -4.305943   -0.086004   -0.947373
      9          6           0       -4.667061   -0.865826    1.227853
     10          9           0       -4.259999   -0.747161    2.519968
     11          6           0       -4.613780   -2.327059    0.763871
     12          8           0       -4.952817   -3.208438    1.734672
     13          8           0       -4.326307   -2.737862   -0.352508
     14          9           0       -5.963112   -0.431435    1.220256
     15          6           0       -2.341545   -0.226878    0.449258
     16          9           0       -2.155017   -1.480511    0.945022
     17          6           0       -1.589943   -0.085828   -0.890698
     18          9           0       -1.770423    1.177310   -1.388851
     19          6           0       -0.085400   -0.376169   -0.735633
     20          7           0        0.719622    0.381114   -1.585017
     21          6           0        2.164633    0.250215   -1.601994
     22          6           0        2.820176    0.901680   -0.379468
     23          6           0        4.319141    0.809878   -0.435194
     24          6           0        5.088010    1.847068   -0.960766
     25          7           0        6.436214    1.818265   -1.053573
     26          6           0        7.051638    0.704184   -0.600161
     27          6           0        6.380710   -0.385419   -0.063544
     28          6           0        4.992435   -0.328165    0.018744
     29          8           0        0.381827   -1.234926    0.012658
     30          9           0       -2.134406   -0.922286   -1.823302
     31          8           0       -1.791884    0.678790    1.432797
     32          1           0       -4.876608   -4.097492    1.321992
     33          1           0        0.281369    1.092725   -2.164553
     34          1           0        2.414762   -0.818636   -1.658402
     35          1           0        2.516935    0.724842   -2.526706
     36          1           0        2.516551    1.955549   -0.311723
     37          1           0        2.463477    0.434715    0.547785
     38          1           0        4.630533    2.760723   -1.333292
     39          1           0        8.134892    0.707304   -0.684118
     40          1           0        6.927102   -1.257118    0.283126
     41          1           0        4.442012   -1.170096    0.436893
 ---------------------------------------------------------------------

 SCF Done:  E(RCAM-B3LYP) =  -1985.74456635     A.U. after   13 cycles

 Alpha  occ. eigenvalues --  -24.83271 -24.82718 -24.82714 -24.82539 -24.82485
 Alpha  occ. eigenvalues --  -24.82437 -24.82385 -24.82294 -24.82197 -24.81464
 Alpha  occ. eigenvalues --  -19.31970 -19.29906 -19.25160 -19.22308 -14.45707
 Alpha  occ. eigenvalues --  -14.40679 -10.52687 -10.49247 -10.48673 -10.47826
 Alpha  occ. eigenvalues --  -10.47239 -10.44326 -10.42507 -10.40324 -10.31247
 Alpha  occ. eigenvalues --  -10.29721 -10.29620 -10.28199 -10.28028 -10.27291
 Alpha  occ. eigenvalues --  -10.27200  -1.40353  -1.38229  -1.37914  -1.37494
 Alpha  occ. eigenvalues --   -1.35299  -1.34311  -1.32416  -1.31896  -1.31068
 Alpha  occ. eigenvalues --   -1.30600  -1.21674  -1.20077  -1.14139  -1.12065
 Alpha  occ. eigenvalues --   -1.02125  -1.01791  -0.97246  -0.90809  -0.90178
 Alpha  occ. eigenvalues --   -0.87975  -0.86482  -0.83797  -0.81399  -0.77874
 Alpha  occ. eigenvalues --   -0.76748  -0.74211  -0.73942  -0.70737  -0.70580
 Alpha  occ. eigenvalues --   -0.70102  -0.69424  -0.68764  -0.68191  -0.67201
 Alpha  occ. eigenvalues --   -0.66975  -0.66148  -0.65884  -0.65407  -0.64477
 Alpha  occ. eigenvalues --   -0.63710  -0.62990  -0.61472  -0.59307  -0.58244
 Alpha  occ. eigenvalues --   -0.57628  -0.56615  -0.56597  -0.56256  -0.55810
 Alpha  occ. eigenvalues --   -0.55684  -0.55555  -0.54705  -0.54278  -0.53842
 Alpha  occ. eigenvalues --   -0.53568  -0.53385  -0.52733  -0.52442  -0.52262
 Alpha  occ. eigenvalues --   -0.52069  -0.51420  -0.51231  -0.50419  -0.50274
 Alpha  occ. eigenvalues --   -0.49804  -0.49511  -0.49024  -0.48950  -0.48887
 Alpha  occ. eigenvalues --   -0.48116  -0.47509  -0.47015  -0.46883  -0.46611
 Alpha  occ. eigenvalues --   -0.45281  -0.45044  -0.43401  -0.42708  -0.42391
 Alpha  occ. eigenvalues --   -0.41475  -0.40829  -0.37361  -0.34742  -0.34314
 Alpha  occ. eigenvalues --   -0.33537  -0.32032  -0.30936
 Alpha virt. eigenvalues --    0.00084   0.01739   0.02237   0.03835   0.04550
 Alpha virt. eigenvalues --    0.09048   0.09554   0.11620   0.12817   0.13916
 Alpha virt. eigenvalues --    0.14657   0.16815   0.17212   0.17817   0.18911

 Mulliken charges:
               1
     1  F   -0.238895
     2  C    0.749477
     3  F   -0.248867
     4  C    0.546356
     5  F   -0.250200
     6  F   -0.269009
     7  C    0.136021
     8  F   -0.284462
     9  C    0.597360
    10  F   -0.258911
    11  C    0.564425
    12  O   -0.482134
    13  O   -0.448219
    14  F   -0.269499
    15  C    0.485812
    16  F   -0.266558
    17  C    0.578102
    18  F   -0.286039
    19  C    0.564573
    20  N   -0.553981
    21  C   -0.037214
    22  C   -0.246098
    23  C    0.081104
    24  C    0.047209
    25  N   -0.443751
    26  C    0.077623
    27  C   -0.100722
    28  C   -0.093444
    29  O   -0.507576
    30  F   -0.265951
    31  O   -0.497211
    32  H    0.360690
    33  H    0.292442
    34  H    0.142441
    35  H    0.126925
    36  H    0.113971
    37  H    0.140487
    38  H    0.104116
    39  H    0.109819
    40  H    0.110420
    41  H    0.119369
 Sum of Mulliken charges =   0.00000

 Dipole moment (field-independent basis, Debye):
    X=             -0.3559    Y=             -1.2447    Z=             -0.7824  Tot=              1.5126
 Quadrupole moment (field-independent basis, Debye-Ang):
   XX=           -175.2484   YY=           -162.3840   ZZ=           -171.1213
   XY=             -4.8322   XZ=              0.8119   YZ=             -5.5535

 Normal termination of Gaussian 09 at Mon Feb  3 21:55:37 2025.
