 Gaussian 09, Revision D.01,
 Gaussian 09:  ES64L-G09RevD.01 24-Apr-2013

 ----------------------------------------------------------------------
 #p CAM-B3LYP/6-31G(d,p) SCRF=(PCM,Solvent=Generic,Read) NoSymm out=wfn
 ----------------------------------------------------------------------

 -------------------
 Title A1671897791_0
 -------------------
 Symbolic Z-matrix:
 Charge =  0 Multiplicity = 1

                          Input orientation:
 ---------------------------------------------------------------------
 Center     Atomic      Atomic             Coordinates (Angstroms)
 Number     Number       Type             X           Y           Z
 ---------------------------------------------------------------------
      1          8           0       -1.824186    1.842952   -2.283461
      2          6           0       -0.820097    1.305298   -1.822603
      3          7           0        0.251888    0.920761   -2.594032
      4          8           0        0.087940    1.075427   -3.991743
      5          6           0        1.150536   -0.046146   -2.210096
      6          8           0        1.719466   -0.726569   -3.063774
      7          7           0        1.278201   -0.217758   -0.850339
      8          6           0        2.292627   -1.179675   -0.423720
      9          9           0        3.375120   -1.018112   -1.239397
     10          9           0        1.833955   -2.435044   -0.679527
     11          6           0        2.810599   -1.096040    1.044694
     12          9           0        1.935899   -1.771690    1.863095
     13          8           0        2.821134    0.230817    1.595816
     14          6           0        3.884695    1.035605    1.160611
     15          9           0        5.033031    0.625849    1.711118
     16          9           0        3.638850    2.302806    1.534989
     17          9           0        3.960059    0.996910   -0.177014
     18          6           0        4.126351   -1.884602    1.103659
     19          9           0        4.607159   -1.918856    2.371059
     20          9           0        5.098011   -1.342774    0.337272
     21          9           0        3.971241   -3.166177    0.704407
     22          6           0        0.185599    0.016761   -0.051895
     23          8           0       -0.001053   -0.611898    0.981205
     24          7           0       -0.724860    0.951947   -0.492170
     25          6           0       -1.817698    1.315831    0.399550
     26          9           0       -1.236550    1.603926    1.613893
     27          9           0       -2.330945    2.527983    0.030432
     28          6           0       -2.992193    0.328588    0.662497
     29          9           0       -2.501494   -0.845710    1.154525
     30          8           0       -3.789606    0.896221    1.717620
     31          6           0       -4.971548    0.186076    1.972329
     32          9           0       -5.427065    0.533994    3.189924
     33          9           0       -5.892880    0.528075    1.056435
     34          9           0       -4.765460   -1.139267    1.947536
     35          6           0       -3.710332    0.051325   -0.657620
     36          9           0       -4.701272   -0.859610   -0.509028
     37          9           0       -2.861920   -0.480285   -1.570879
     38          9           0       -4.269292    1.157514   -1.182765
     39          1           0        0.576088    0.305548   -4.352603
 ---------------------------------------------------------------------

 SCF Done:  E(RCAM-B3LYP) =  -2831.64602077     A.U. after   13 cycles

 Alpha  occ. eigenvalues --  -24.84826 -24.84422 -24.84417 -24.84206 -24.83857
 Alpha  occ. eigenvalues --  -24.83700 -24.83645 -24.83628 -24.83563 -24.83521
 Alpha  occ. eigenvalues --  -24.83301 -24.83287 -24.83284 -24.83206 -24.83123
 Alpha  occ. eigenvalues --  -24.83018 -24.82748 -24.82451 -19.33858 -19.33033
 Alpha  occ. eigenvalues --  -19.31554 -19.26595 -19.25919 -19.24843 -14.56580
 Alpha  occ. eigenvalues --  -14.54332 -14.54223 -10.60403 -10.59602 -10.55908
 Alpha  occ. eigenvalues --  -10.55802 -10.54139 -10.54023 -10.49825 -10.49433
 Alpha  occ. eigenvalues --  -10.48135 -10.47820 -10.47064  -1.44238  -1.43346
 Alpha  occ. eigenvalues --   -1.42196  -1.42185  -1.39811  -1.39021  -1.35859
 Alpha  occ. eigenvalues --   -1.35296  -1.34902  -1.34181  -1.33672  -1.33516
 Alpha  occ. eigenvalues --   -1.33229  -1.33117  -1.32629  -1.32585  -1.32334
 Alpha  occ. eigenvalues --   -1.31464  -1.26644  -1.21985  -1.21240  -1.20465
 Alpha  occ. eigenvalues --   -1.19219  -1.16424  -1.11641  -1.09713  -1.02177
 Alpha  occ. eigenvalues --   -0.93848  -0.93465  -0.86614  -0.85341  -0.83036
 Alpha  occ. eigenvalues --   -0.82948  -0.80955  -0.79805  -0.77589  -0.76721
 Alpha  occ. eigenvalues --   -0.75952  -0.74383  -0.73588  -0.72405  -0.71739
 Alpha  occ. eigenvalues --   -0.71500  -0.70984  -0.70471  -0.70271  -0.69782
 Alpha  occ. eigenvalues --   -0.69146  -0.69006  -0.68592  -0.68025  -0.67506
 Alpha  occ. eigenvalues --   -0.67044  -0.66437  -0.65335  -0.64256  -0.64215
 Alpha  occ. eigenvalues --   -0.63513  -0.60449  -0.59946  -0.58365  -0.58318
 Alpha  occ. eigenvalues --   -0.57926  -0.57689  -0.57505  -0.57309  -0.57129
 Alpha  occ. eigenvalues --   -0.56741  -0.56514  -0.56111  -0.56003  -0.55771
 Alpha  occ. eigenvalues --   -0.55656  -0.55174  -0.54897  -0.54700  -0.54477
 Alpha  occ. eigenvalues --   -0.54285  -0.53971  -0.53798  -0.53505  -0.53395
 Alpha  occ. eigenvalues --   -0.53007  -0.52497  -0.52215  -0.52099  -0.51868
 Alpha  occ. eigenvalues --   -0.51368  -0.51153  -0.51062  -0.50864  -0.50813
 Alpha  occ. eigenvalues --   -0.50540  -0.50341  -0.50136  -0.49777  -0.49721
 Alpha  occ. eigenvalues --   -0.49321  -0.48965  -0.48850  -0.48506  -0.46494
 Alpha  occ. eigenvalues --   -0.45965  -0.44649  -0.43940  -0.42698  -0.41324
 Alpha  occ. eigenvalues --   -0.40313  -0.39423  -0.37578  -0.35994
 Alpha virt. eigenvalues --   -0.01300  -0.00226   0.04259   0.05570   0.06229
 Alpha virt. eigenvalues --    0.06633   0.08284   0.08948   0.13310   0.15799
 Alpha virt. eigenvalues --    0.16538   0.16799   0.17511   0.18842   0.19255

 Mulliken charges:
               1
     1  O   -0.471152
     2  C    0.823483
     3  N   -0.320114
     4  O   -0.386440
     5  C    0.828831
     6  O   -0.492519
     7  N   -0.639080
     8  C    0.795728
     9  F   -0.265605
    10  F   -0.247684
    11  C    0.420705
    12  F   -0.260285
    13  O   -0.502921
    14  C    0.981896
    15  F   -0.233043
    16  F   -0.235567
    17  F   -0.244506
    18  C    0.811860
    19  F   -0.254591
    20  F   -0.247609
    21  F   -0.242005
    22  C    0.841316
    23  O   -0.462140
    24  N   -0.643514
    25  C    0.758766
    26  F   -0.267725
    27  F   -0.245927
    28  C    0.435231
    29  F   -0.251879
    30  O   -0.512892
    31  C    0.997725
    32  F   -0.238352
    33  F   -0.245127
    34  F   -0.242634
    35  C    0.820041
    36  F   -0.253181
    37  F   -0.253052
    38  F   -0.232410
    39  H    0.376370
 Sum of Mulliken charges =   0.00000

 Dipole moment (field-independent basis, Debye):
    X=              1.8669    Y=             -0.0966    Z=             -0.6984  Tot=              1.9956
 Quadrupole moment (field-independent basis, Debye-Ang):
   XX=           -202.9388   YY=           -205.1901   ZZ=           -203.9782
   XY=              9.2248   XZ=             -2.8266   YZ=              5.0120

 Normal termination of Gaussian 09 at Sun Mar  3 17:31:17 2024.
