 Gaussian 09, Revision D.01,
 Gaussian 09:  ES64L-G09RevD.01 24-Apr-2013

 ----------------------------------------------------------------------
 #p CAM-B3LYP/6-31G(d,p) SCRF=(PCM,Solvent=Generic,Read) NoSymm out=wfn
 ----------------------------------------------------------------------

 --------------------
 Title A1671897791_p1
 --------------------
 Symbolic Z-matrix:
 Charge =  1 Multiplicity = 2

                          Input orientation:
 ---------------------------------------------------------------------
 Center     Atomic      Atomic             Coordinates (Angstroms)
 Number     Number       Type             X           Y           Z
 ---------------------------------------------------------------------
      1          8           0       -1.824186    1.842952   -2.283461
      2          6           0       -0.820097    1.305298   -1.822603
      3          7           0        0.251888    0.920761   -2.594032
      4          8           0        0.087940    1.075427   -3.991743
      5          6           0        1.150536   -0.046146   -2.210096
      6          8           0        1.719466   -0.726569   -3.063774
      7          7           0        1.278201   -0.217758   -0.850339
      8          6           0        2.292627   -1.179675   -0.423720
      9          9           0        3.375120   -1.018112   -1.239397
     10          9           0        1.833955   -2.435044   -0.679527
     11          6           0        2.810599   -1.096040    1.044694
     12          9           0        1.935899   -1.771690    1.863095
     13          8           0        2.821134    0.230817    1.595816
     14          6           0        3.884695    1.035605    1.160611
     15          9           0        5.033031    0.625849    1.711118
     16          9           0        3.638850    2.302806    1.534989
     17          9           0        3.960059    0.996910   -0.177014
     18          6           0        4.126351   -1.884602    1.103659
     19          9           0        4.607159   -1.918856    2.371059
     20          9           0        5.098011   -1.342774    0.337272
     21          9           0        3.971241   -3.166177    0.704407
     22          6           0        0.185599    0.016761   -0.051895
     23          8           0       -0.001053   -0.611898    0.981205
     24          7           0       -0.724860    0.951947   -0.492170
     25          6           0       -1.817698    1.315831    0.399550
     26          9           0       -1.236550    1.603926    1.613893
     27          9           0       -2.330945    2.527983    0.030432
     28          6           0       -2.992193    0.328588    0.662497
     29          9           0       -2.501494   -0.845710    1.154525
     30          8           0       -3.789606    0.896221    1.717620
     31          6           0       -4.971548    0.186076    1.972329
     32          9           0       -5.427065    0.533994    3.189924
     33          9           0       -5.892880    0.528075    1.056435
     34          9           0       -4.765460   -1.139267    1.947536
     35          6           0       -3.710332    0.051325   -0.657620
     36          9           0       -4.701272   -0.859610   -0.509028
     37          9           0       -2.861920   -0.480285   -1.570879
     38          9           0       -4.269292    1.157514   -1.182765
     39          1           0        0.576088    0.305548   -4.352603
 ---------------------------------------------------------------------

 SCF Done:  E(UCAM-B3LYP) =  -2831.31558025     A.U. after   28 cycles

 Alpha  occ. eigenvalues --  -24.88165 -24.87936 -24.87703 -24.87684 -24.87423
 Alpha  occ. eigenvalues --  -24.86777 -24.86465 -24.86458 -24.86369 -24.86071
 Alpha  occ. eigenvalues --  -24.85952 -24.85878 -24.85613 -24.85552 -24.85439
 Alpha  occ. eigenvalues --  -24.85210 -24.85127 -24.85116 -19.50471 -19.37908
 Alpha  occ. eigenvalues --  -19.37167 -19.36598 -19.35565 -19.32101 -14.74982
 Alpha  occ. eigenvalues --  -14.61725 -14.61425 -10.62767 -10.61576 -10.59048
 Alpha  occ. eigenvalues --  -10.58693 -10.58577 -10.58121 -10.57823 -10.57242
 Alpha  occ. eigenvalues --  -10.54256 -10.52965 -10.52789  -1.46589  -1.45990
 Alpha  occ. eigenvalues --   -1.44757  -1.44639  -1.43582  -1.43224  -1.41216
 Alpha  occ. eigenvalues --   -1.38893  -1.38252  -1.37366  -1.37027  -1.36722
 Alpha  occ. eigenvalues --   -1.36230  -1.35779  -1.35559  -1.35352  -1.34996
 Alpha  occ. eigenvalues --   -1.34704  -1.34517  -1.30968  -1.29681  -1.26702
 Alpha  occ. eigenvalues --   -1.24010  -1.22991  -1.20698  -1.17346  -1.14937
 Alpha  occ. eigenvalues --   -0.97891  -0.97508  -0.94916  -0.91912  -0.89246
 Alpha  occ. eigenvalues --   -0.87125  -0.85813  -0.85446  -0.83657  -0.81931
 Alpha  occ. eigenvalues --   -0.79581  -0.79214  -0.77359  -0.76806  -0.76606
 Alpha  occ. eigenvalues --   -0.74986  -0.74787  -0.74271  -0.73986  -0.73674
 Alpha  occ. eigenvalues --   -0.72943  -0.72482  -0.71931  -0.71789  -0.71469
 Alpha  occ. eigenvalues --   -0.70772  -0.70442  -0.69964  -0.69611  -0.68358
 Alpha  occ. eigenvalues --   -0.67647  -0.67069  -0.66921  -0.65907  -0.65175
 Alpha  occ. eigenvalues --   -0.63766  -0.63143  -0.62431  -0.61926  -0.60867
 Alpha  occ. eigenvalues --   -0.60512  -0.60269  -0.60129  -0.59858  -0.59716
 Alpha  occ. eigenvalues --   -0.59471  -0.59288  -0.58770  -0.58446  -0.58245
 Alpha  occ. eigenvalues --   -0.58114  -0.57814  -0.57624  -0.57227  -0.56924
 Alpha  occ. eigenvalues --   -0.56766  -0.56643  -0.55842  -0.55744  -0.55272
 Alpha  occ. eigenvalues --   -0.54602  -0.54568  -0.54308  -0.53909  -0.53698
 Alpha  occ. eigenvalues --   -0.53616  -0.53331  -0.53239  -0.53072  -0.52849
 Alpha  occ. eigenvalues --   -0.52649  -0.52362  -0.52024  -0.51750  -0.51511
 Alpha  occ. eigenvalues --   -0.51345  -0.50801  -0.50616  -0.49188  -0.48367
 Alpha  occ. eigenvalues --   -0.47599  -0.46759  -0.46352  -0.44558
 Alpha virt. eigenvalues --   -0.10820  -0.08516  -0.07359  -0.02352   0.01799
 Alpha virt. eigenvalues --    0.02265   0.03572   0.03833   0.06323   0.08614
 Alpha virt. eigenvalues --    0.10952   0.11470   0.12518   0.14110   0.14452

  Beta  occ. eigenvalues --  -24.88158 -24.87927 -24.87699 -24.87674 -24.87423
  Beta  occ. eigenvalues --  -24.86777 -24.86465 -24.86457 -24.86369 -24.86071
  Beta  occ. eigenvalues --  -24.85952 -24.85877 -24.85613 -24.85552 -24.85439
  Beta  occ. eigenvalues --  -24.85210 -24.85127 -24.85116 -19.49514 -19.37515
  Beta  occ. eigenvalues --  -19.36599 -19.36539 -19.35565 -19.32080 -14.73846
  Beta  occ. eigenvalues --  -14.61705 -14.61457 -10.62767 -10.61576 -10.59048
  Beta  occ. eigenvalues --  -10.58695 -10.58576 -10.58121 -10.57984 -10.57452
  Beta  occ. eigenvalues --  -10.54269 -10.52964 -10.52791  -1.46588  -1.45986
  Beta  occ. eigenvalues --   -1.44747  -1.44638  -1.43564  -1.43204  -1.39457
  Beta  occ. eigenvalues --   -1.38891  -1.38248  -1.37364  -1.37016  -1.36714
  Beta  occ. eigenvalues --   -1.36228  -1.35775  -1.35549  -1.35351  -1.34996
  Beta  occ. eigenvalues --   -1.34703  -1.34516  -1.30355  -1.28958  -1.26060
  Beta  occ. eigenvalues --   -1.24008  -1.22991  -1.19769  -1.17150  -1.13424
  Beta  occ. eigenvalues --   -0.97834  -0.97394  -0.94545  -0.91876  -0.88883
  Beta  occ. eigenvalues --   -0.86988  -0.85757  -0.85436  -0.83650  -0.81485
  Beta  occ. eigenvalues --   -0.79547  -0.78948  -0.77097  -0.76582  -0.75505
  Beta  occ. eigenvalues --   -0.74788  -0.74461  -0.74200  -0.73663  -0.73359
  Beta  occ. eigenvalues --   -0.72818  -0.72127  -0.71886  -0.71552  -0.71429
  Beta  occ. eigenvalues --   -0.70671  -0.70373  -0.69869  -0.69496  -0.68322
  Beta  occ. eigenvalues --   -0.67223  -0.66537  -0.66481  -0.64828  -0.63864
  Beta  occ. eigenvalues --   -0.63152  -0.63038  -0.62281  -0.61363  -0.60791
  Beta  occ. eigenvalues --   -0.60215  -0.60183  -0.59829  -0.59807  -0.59568
  Beta  occ. eigenvalues --   -0.59345  -0.58954  -0.58450  -0.58189  -0.58088
  Beta  occ. eigenvalues --   -0.57831  -0.57577  -0.57306  -0.56961  -0.56780
  Beta  occ. eigenvalues --   -0.56590  -0.55923  -0.55740  -0.55285  -0.55223
  Beta  occ. eigenvalues --   -0.54587  -0.54554  -0.54195  -0.53861  -0.53615
  Beta  occ. eigenvalues --   -0.53595  -0.53249  -0.53091  -0.52775  -0.52684
  Beta  occ. eigenvalues --   -0.52602  -0.51937  -0.51671  -0.51511  -0.51267
  Beta  occ. eigenvalues --   -0.50530  -0.49594  -0.48927  -0.47887  -0.47460
  Beta  occ. eigenvalues --   -0.46599  -0.45924  -0.44221
  Beta virt. eigenvalues --   -0.30066  -0.09728  -0.07160  -0.06123  -0.01594
  Beta virt. eigenvalues --    0.01873   0.02278   0.03636   0.03910   0.06728
  Beta virt. eigenvalues --    0.08646   0.11193   0.11557   0.12628   0.14152

 Mulliken charges and spin densities:
               1          2
     1  O   -0.332948   0.249599
     2  C    0.879345  -0.118833
     3  N   -0.211315   0.465083
     4  O   -0.146169   0.330812
     5  C    0.881892  -0.089949
     6  O   -0.380495   0.156678
     7  N   -0.637562   0.011589
     8  C    0.800129  -0.001482
     9  F   -0.255685   0.001798
    10  F   -0.232301   0.001156
    11  C    0.420476   0.000161
    12  F   -0.253368   0.000101
    13  O   -0.500056  -0.000065
    14  C    0.984748  -0.000005
    15  F   -0.227102   0.000000
    16  F   -0.231695   0.000001
    17  F   -0.247830   0.000050
    18  C    0.819526  -0.000018
    19  F   -0.247598  -0.000005
    20  F   -0.244788   0.000046
    21  F   -0.237961   0.000001
    22  C    0.872148  -0.006276
    23  O   -0.408070   0.009026
    24  N   -0.647070  -0.008648
    25  C    0.760437  -0.000096
    26  F   -0.251225   0.000506
    27  F   -0.235652   0.002042
    28  C    0.444487  -0.000882
    29  F   -0.245648  -0.000016
    30  O   -0.506338  -0.000006
    31  C    1.002653  -0.000039
    32  F   -0.233303  -0.000008
    33  F   -0.242405   0.000000
    34  F   -0.240227   0.000005
    35  C    0.819881  -0.000239
    36  F   -0.243575   0.000056
    37  F   -0.258924   0.001453
    38  F   -0.228326   0.000092
    39  H    0.441915  -0.003684
 Sum of Mulliken charges =   1.00000   1.00000

 Dipole moment (field-independent basis, Debye):
    X=              2.2162    Y=              2.9956    Z=            -11.7537  Tot=             12.3303
 Quadrupole moment (field-independent basis, Debye-Ang):
   XX=           -186.9879   YY=           -194.8639   ZZ=           -159.7700
   XY=              4.7646   XZ=             -5.2557   YZ=             -4.7621

 Normal termination of Gaussian 09 at Sun Mar  3 17:32:32 2024.
