 Gaussian 09, Revision D.01,
 Gaussian 09:  ES64L-G09RevD.01 24-Apr-2013

 ----------------------------------------------------------------------
 #p CAM-B3LYP/6-31G(d,p) SCRF=(PCM,Solvent=Generic,Read) NoSymm out=wfn
 ----------------------------------------------------------------------

 -------------------
 Title A150513910_p1
 -------------------
 Symbolic Z-matrix:
 Charge =  1 Multiplicity = 2

                          Input orientation:
 ---------------------------------------------------------------------
 Center     Atomic      Atomic             Coordinates (Angstroms)
 Number     Number       Type             X           Y           Z
 ---------------------------------------------------------------------
      1          8           0       -1.745115    1.453588   -1.081737
      2          6           0       -0.797471    0.891495   -0.546904
      3          7           0        0.429234    1.508182   -0.508941
      4          6           0        0.609424    2.779513   -1.208011
      5          9           0        0.675076    2.494592   -2.542569
      6          9           0        1.877829    3.205560   -0.903943
      7          6           0       -0.337776    3.996215   -0.976538
      8          9           0        0.302774    5.095610   -1.504760
      9          8           0       -1.524575    3.879258   -1.756276
     10          6           0       -2.519547    4.790464   -1.387442
     11          9           0       -3.052673    4.423560   -0.210449
     12          9           0       -3.486214    4.785165   -2.323238
     13          9           0       -2.016232    6.032208   -1.293231
     14          6           0       -0.436825    4.174646    0.542991
     15          9           0       -1.115180    3.167541    1.138682
     16          9           0        0.784599    4.215880    1.127360
     17          9           0       -1.060667    5.325202    0.884399
     18          6           0        1.575443    0.660174   -0.511552
     19          7           0        1.423252   -0.445395    0.372664
     20          6           0        2.625329   -1.199504    0.738195
     21          9           0        2.504465   -1.583568    2.035812
     22          9           0        3.661345   -0.316301    0.751940
     23          6           0        2.989448   -2.414292   -0.167213
     24          9           0        2.037815   -3.391175   -0.021673
     25          8           0        2.909538   -2.116457   -1.571714
     26          6           0        4.061526   -1.533900   -2.124327
     27          9           0        3.780989   -1.170021   -3.387672
     28          9           0        5.076491   -2.403999   -2.130901
     29          9           0        4.385143   -0.433055   -1.433133
     30          6           0        4.304033   -2.988954    0.375677
     31          9           0        5.320404   -2.100992    0.299775
     32          9           0        4.210883   -3.376127    1.665642
     33          9           0        4.680924   -4.080189   -0.334527
     34          6           0        0.204467   -1.046828    0.504435
     35          8           0        0.113511   -2.151259    1.022104
     36          7           0       -0.892325   -0.340706    0.077587
     37          6           0       -2.215153   -0.969316    0.026439
     38          9           0       -2.382321   -1.371417   -1.276505
     39          9           0       -3.165971    0.001478    0.222470
     40          6           0       -2.663862   -2.156310    0.928625
     41          9           0       -1.892544   -3.248906    0.707035
     42          8           0       -3.982422   -2.546553    0.480733
     43          6           0       -4.585788   -3.499674    1.316164
     44          9           0       -5.588030   -4.089949    0.638620
     45          9           0       -3.713451   -4.441169    1.706643
     46          9           0       -5.102745   -2.881345    2.391123
     47          6           0       -2.608938   -1.654627    2.379294
     48          9           0       -1.447116   -1.056503    2.715277
     49          9           0       -3.581699   -0.738584    2.611007
     50          9           0       -2.805358   -2.657072    3.266953
     51          1           0        1.729778    0.283695   -1.528585
     52          1           0        2.446278    1.240119   -0.195806
 ---------------------------------------------------------------------

 SCF Done:  E(UCAM-B3LYP) =  -3807.46425378     A.U. after   53 cycles

 Alpha  occ. eigenvalues --  -24.90999 -24.90053 -24.88821 -24.88730 -24.88587
 Alpha  occ. eigenvalues --  -24.87924 -24.87811 -24.87584 -24.87386 -24.87257
 Alpha  occ. eigenvalues --  -24.87160 -24.87059 -24.86837 -24.86805 -24.86347
 Alpha  occ. eigenvalues --  -24.86289 -24.85912 -24.85795 -24.85744 -24.85734
 Alpha  occ. eigenvalues --  -24.85733 -24.85508 -24.85440 -24.85326 -24.85316
 Alpha  occ. eigenvalues --  -24.85133 -24.85016 -19.38976 -19.36641 -19.35423
 Alpha  occ. eigenvalues --  -19.35337 -19.31415 -14.67355 -14.60641 -14.60189
 Alpha  occ. eigenvalues --  -10.64288 -10.61553 -10.61483 -10.61241 -10.59786
 Alpha  occ. eigenvalues --  -10.58978 -10.58747 -10.58555 -10.58133 -10.56031
 Alpha  occ. eigenvalues --  -10.55403 -10.53115 -10.53060 -10.53011 -10.48963
 Alpha  occ. eigenvalues --   -1.48158  -1.46966  -1.45792  -1.45649  -1.45331
 Alpha  occ. eigenvalues --   -1.44596  -1.44494  -1.44071  -1.42540  -1.41100
 Alpha  occ. eigenvalues --   -1.39537  -1.39090  -1.38494  -1.38111  -1.37511
 Alpha  occ. eigenvalues --   -1.36869  -1.36532  -1.36371  -1.36230  -1.35845
 Alpha  occ. eigenvalues --   -1.35690  -1.35494  -1.35341  -1.35312  -1.34942
 Alpha  occ. eigenvalues --   -1.34790  -1.34648  -1.32583  -1.27165  -1.26241
 Alpha  occ. eigenvalues --   -1.23401  -1.23094  -1.22601  -1.16890  -1.16272
 Alpha  occ. eigenvalues --   -0.99910  -0.98398  -0.97883  -0.95136  -0.93457
 Alpha  occ. eigenvalues --   -0.90478  -0.87420  -0.86272  -0.85982  -0.85300
 Alpha  occ. eigenvalues --   -0.83777  -0.82927  -0.81909  -0.79752  -0.78993
 Alpha  occ. eigenvalues --   -0.78721  -0.77836  -0.77576  -0.76346  -0.76294
 Alpha  occ. eigenvalues --   -0.75825  -0.74793  -0.74730  -0.74547  -0.74428
 Alpha  occ. eigenvalues --   -0.73676  -0.73546  -0.73012  -0.72521  -0.72288
 Alpha  occ. eigenvalues --   -0.72082  -0.71993  -0.71678  -0.71417  -0.71228
 Alpha  occ. eigenvalues --   -0.71070  -0.70613  -0.70118  -0.69890  -0.69539
 Alpha  occ. eigenvalues --   -0.69316  -0.68821  -0.68685  -0.67968  -0.66260
 Alpha  occ. eigenvalues --   -0.64646  -0.64465  -0.63674  -0.62954  -0.62448
 Alpha  occ. eigenvalues --   -0.62295  -0.61983  -0.61430  -0.61412  -0.60870
 Alpha  occ. eigenvalues --   -0.60662  -0.60526  -0.60168  -0.59932  -0.59788
 Alpha  occ. eigenvalues --   -0.59655  -0.59350  -0.59094  -0.59028  -0.58940
 Alpha  occ. eigenvalues --   -0.58581  -0.58417  -0.58320  -0.58267  -0.58161
 Alpha  occ. eigenvalues --   -0.58000  -0.57625  -0.57516  -0.57301  -0.57112
 Alpha  occ. eigenvalues --   -0.56818  -0.56481  -0.56437  -0.55830  -0.55735
 Alpha  occ. eigenvalues --   -0.55724  -0.55332  -0.55201  -0.55070  -0.54692
 Alpha  occ. eigenvalues --   -0.54626  -0.54489  -0.54353  -0.54249  -0.53883
 Alpha  occ. eigenvalues --   -0.53701  -0.53662  -0.53639  -0.53399  -0.53122
 Alpha  occ. eigenvalues --   -0.52977  -0.52946  -0.52667  -0.52461  -0.52397
 Alpha  occ. eigenvalues --   -0.52083  -0.51728  -0.51602  -0.51500  -0.49559
 Alpha  occ. eigenvalues --   -0.48731  -0.48713  -0.48460  -0.47905  -0.47490
 Alpha  occ. eigenvalues --   -0.46910  -0.46102  -0.43582
 Alpha virt. eigenvalues --   -0.08885  -0.02782  -0.01521   0.00691   0.00985
 Alpha virt. eigenvalues --    0.02640   0.04424   0.05087   0.06631   0.07192
 Alpha virt. eigenvalues --    0.08179   0.08886   0.09761   0.11171   0.11759

  Beta  occ. eigenvalues --  -24.90987 -24.90006 -24.88821 -24.88681 -24.88585
  Beta  occ. eigenvalues --  -24.87897 -24.87811 -24.87583 -24.87370 -24.87253
  Beta  occ. eigenvalues --  -24.87159 -24.87056 -24.86837 -24.86798 -24.86338
  Beta  occ. eigenvalues --  -24.86290 -24.85909 -24.85795 -24.85744 -24.85733
  Beta  occ. eigenvalues --  -24.85729 -24.85508 -24.85440 -24.85326 -24.85315
  Beta  occ. eigenvalues --  -24.85133 -24.85016 -19.38967 -19.35882 -19.35423
  Beta  occ. eigenvalues --  -19.35337 -19.31296 -14.66300 -14.60681 -14.59881
  Beta  occ. eigenvalues --  -10.64289 -10.61553 -10.61483 -10.61284 -10.59770
  Beta  occ. eigenvalues --  -10.58978 -10.58748 -10.58571 -10.58133 -10.56237
  Beta  occ. eigenvalues --  -10.55367 -10.53156 -10.53055 -10.53010 -10.48944
  Beta  occ. eigenvalues --   -1.48138  -1.46891  -1.45787  -1.45634  -1.45309
  Beta  occ. eigenvalues --   -1.44594  -1.44487  -1.44047  -1.42535  -1.41009
  Beta  occ. eigenvalues --   -1.39460  -1.39080  -1.38487  -1.38100  -1.37509
  Beta  occ. eigenvalues --   -1.36847  -1.36495  -1.36365  -1.36222  -1.35829
  Beta  occ. eigenvalues --   -1.35688  -1.35491  -1.35341  -1.35311  -1.34939
  Beta  occ. eigenvalues --   -1.34789  -1.34647  -1.31592  -1.26582  -1.26199
  Beta  occ. eigenvalues --   -1.23259  -1.22664  -1.21645  -1.16648  -1.15308
  Beta  occ. eigenvalues --   -0.99719  -0.98140  -0.97823  -0.94723  -0.93222
  Beta  occ. eigenvalues --   -0.90371  -0.87391  -0.86165  -0.85908  -0.85219
  Beta  occ. eigenvalues --   -0.83725  -0.82598  -0.81714  -0.79665  -0.78923
  Beta  occ. eigenvalues --   -0.78473  -0.77647  -0.77023  -0.76280  -0.76175
  Beta  occ. eigenvalues --   -0.75735  -0.74696  -0.74532  -0.74466  -0.74110
  Beta  occ. eigenvalues --   -0.73536  -0.73119  -0.72725  -0.72459  -0.72257
  Beta  occ. eigenvalues --   -0.71979  -0.71932  -0.71621  -0.71287  -0.71139
  Beta  occ. eigenvalues --   -0.71035  -0.70528  -0.69846  -0.69594  -0.69484
  Beta  occ. eigenvalues --   -0.69224  -0.68761  -0.68638  -0.67599  -0.64995
  Beta  occ. eigenvalues --   -0.64465  -0.63807  -0.63004  -0.62694  -0.62355
  Beta  occ. eigenvalues --   -0.62033  -0.61806  -0.61402  -0.61227  -0.60799
  Beta  occ. eigenvalues --   -0.60422  -0.60366  -0.60049  -0.59854  -0.59670
  Beta  occ. eigenvalues --   -0.59558  -0.59309  -0.58996  -0.58953  -0.58806
  Beta  occ. eigenvalues --   -0.58519  -0.58342  -0.58294  -0.58182  -0.58087
  Beta  occ. eigenvalues --   -0.57946  -0.57459  -0.57448  -0.57183  -0.56975
  Beta  occ. eigenvalues --   -0.56593  -0.56353  -0.56314  -0.55776  -0.55694
  Beta  occ. eigenvalues --   -0.55676  -0.55216  -0.55171  -0.54984  -0.54638
  Beta  occ. eigenvalues --   -0.54571  -0.54342  -0.54308  -0.54211  -0.53787
  Beta  occ. eigenvalues --   -0.53658  -0.53611  -0.53467  -0.53367  -0.52971
  Beta  occ. eigenvalues --   -0.52942  -0.52852  -0.52629  -0.52418  -0.52286
  Beta  occ. eigenvalues --   -0.51857  -0.51718  -0.51578  -0.49178  -0.49097
  Beta  occ. eigenvalues --   -0.48603  -0.47996  -0.47677  -0.46804  -0.46156
  Beta  occ. eigenvalues --   -0.45006  -0.42539
  Beta virt. eigenvalues --   -0.30263  -0.07769  -0.02321  -0.01434   0.00860
  Beta virt. eigenvalues --    0.01056   0.02889   0.04608   0.05163   0.06797
  Beta virt. eigenvalues --    0.07358   0.08258   0.09515   0.10134   0.11368

 Mulliken charges and spin densities:
               1          2
     1  O   -0.422408   0.047503
     2  C    0.889573  -0.026250
     3  N   -0.564293   0.143546
     4  C    0.758965  -0.007282
     5  F   -0.248585   0.004538
     6  F   -0.266482   0.000549
     7  C    0.430080   0.002090
     8  F   -0.259198   0.001026
     9  O   -0.479676  -0.000033
    10  C    0.999096   0.000014
    11  F   -0.243873   0.000016
    12  F   -0.233622   0.000020
    13  F   -0.242524   0.000009
    14  C    0.819378  -0.000212
    15  F   -0.241809   0.001106
    16  F   -0.242249   0.000123
    17  F   -0.242769   0.000059
    18  C    0.062279  -0.011316
    19  N   -0.489362   0.484066
    20  C    0.768140  -0.022235
    21  F   -0.217528   0.011836
    22  F   -0.234622   0.003507
    23  C    0.438769   0.013022
    24  F   -0.235549   0.011688
    25  O   -0.505242   0.003506
    26  C    1.002299  -0.000609
    27  F   -0.230132   0.000080
    28  F   -0.222122   0.000089
    29  F   -0.244841   0.000095
    30  C    0.827123   0.005631
    31  F   -0.242635   0.000549
    32  F   -0.231567   0.000171
    33  F   -0.242991   0.002227
    34  C    0.918151  -0.120022
    35  O   -0.364641   0.295171
    36  N   -0.667196  -0.009723
    37  C    0.782568  -0.000099
    38  F   -0.254799  -0.000164
    39  F   -0.248578   0.001555
    40  C    0.414695  -0.000173
    41  F   -0.242477   0.000812
    42  O   -0.508710  -0.000051
    43  C    0.998831   0.000028
    44  F   -0.233864   0.000003
    45  F   -0.239982  -0.000003
    46  F   -0.241236   0.000005
    47  C    0.821498  -0.000462
    48  F   -0.242353   0.005888
    49  F   -0.239041   0.000258
    50  F   -0.244644   0.000031
    51  H    0.295976   0.114330
    52  H    0.284181   0.043489
 Sum of Mulliken charges =   1.00000   1.00000

 Dipole moment (field-independent basis, Debye):
    X=              7.8478    Y=             -0.2655    Z=             -0.6878  Tot=              7.8823
 Quadrupole moment (field-independent basis, Debye-Ang):
   XX=           -237.6897   YY=           -248.4555   ZZ=           -254.6083
   XY=             -1.6643   XZ=             -7.4963   YZ=              0.3458

 Normal termination of Gaussian 09 at Sun Mar  3 17:31:09 2024.
