 Gaussian 09, Revision D.01,
 Gaussian 09:  ES64L-G09RevD.01 24-Apr-2013

 ----------------------------------------------------------------------
 #p CAM-B3LYP/6-31G(d,p) SCRF=(PCM,Solvent=Generic,Read) NoSymm out=wfn
 ----------------------------------------------------------------------

 ------------------
 Title A150513910_0
 ------------------
 Symbolic Z-matrix:
 Charge =  0 Multiplicity = 1

                          Input orientation:
 ---------------------------------------------------------------------
 Center     Atomic      Atomic             Coordinates (Angstroms)
 Number     Number       Type             X           Y           Z
 ---------------------------------------------------------------------
      1          8           0        1.751198   -1.625342   -1.750966
      2          6           0        1.059693   -0.747831   -1.242372
      3          7           0       -0.316381   -0.837014   -1.211425
      4          6           0       -0.887010   -2.072194   -1.773104
      5          9           0       -0.399528   -2.194089   -3.035505
      6          9           0       -0.400866   -3.119702   -1.052390
      7          6           0       -2.432646   -2.201513   -1.829264
      8          9           0       -2.939548   -1.081256   -2.426493
      9          8           0       -2.937354   -2.206520   -0.481518
     10          6           0       -4.307156   -2.517864   -0.406820
     11          9           0       -4.760299   -2.108215    0.791608
     12          9           0       -4.997601   -1.891186   -1.369510
     13          9           0       -4.463087   -3.846322   -0.498843
     14          6           0       -2.730316   -3.450783   -2.677254
     15          9           0       -2.274601   -4.575481   -2.082459
     16          9           0       -2.197963   -3.394481   -3.915841
     17          9           0       -4.063638   -3.617275   -2.855777
     18          6           0       -1.007760   -0.169957   -0.155949
     19          7           0       -0.442055    1.096845    0.177926
     20          6           0       -1.197403    1.903615    1.126166
     21          9           0       -0.851939    1.472863    2.370610
     22          9           0       -2.512551    1.534939    1.004741
     23          6           0       -1.164266    3.464804    1.057502
     24          9           0        0.033210    3.994663    1.415852
     25          8           0       -2.145877    4.132447    1.871483
     26          6           0       -2.073436    3.767989    3.225100
     27          9           0       -2.734121    2.610298    3.402328
     28          9           0       -2.679772    4.720764    3.957450
     29          9           0       -0.805640    3.639029    3.642001
     30          6           0       -1.447751    3.828752   -0.397978
     31          9           0       -2.626257    3.311636   -0.824377
     32          9           0       -1.522543    5.170523   -0.574873
     33          9           0       -0.496152    3.377079   -1.247702
     34          6           0        0.921149    1.222774    0.170103
     35          8           0        1.470560    2.059753    0.875204
     36          7           0        1.609430    0.378219   -0.665934
     37          6           0        3.065325    0.495095   -0.672276
     38          9           0        3.399436    1.817770   -0.690370
     39          9           0        3.554396    0.037595   -1.860855
     40          6           0        3.771339   -0.224035    0.503848
     41          9           0        3.391726    0.363732    1.677429
     42          8           0        3.299003   -1.574008    0.593604
     43          6           0        4.054667   -2.369261    1.467436
     44          9           0        5.202385   -2.724795    0.869988
     45          9           0        4.307938   -1.719645    2.613863
     46          9           0        3.348622   -3.480173    1.748933
     47          6           0        5.273687   -0.011786    0.271232
     48          9           0        5.713390   -0.667354   -0.826009
     49          9           0        6.005817   -0.472100    1.315382
     50          9           0        5.607263    1.288892    0.126367
     51          1           0       -0.993805   -0.806944    0.736096
     52          1           0       -2.030912    0.017051   -0.486386
 ---------------------------------------------------------------------

 SCF Done:  E(RCAM-B3LYP) =  -3807.80452510     A.U. after   13 cycles

 Alpha  occ. eigenvalues --  -24.84950 -24.84740 -24.84606 -24.84510 -24.84366
 Alpha  occ. eigenvalues --  -24.84152 -24.84050 -24.83904 -24.83743 -24.83725
 Alpha  occ. eigenvalues --  -24.83693 -24.83627 -24.83579 -24.83536 -24.83448
 Alpha  occ. eigenvalues --  -24.83226 -24.83173 -24.83145 -24.82963 -24.82867
 Alpha  occ. eigenvalues --  -24.82809 -24.82755 -24.82693 -24.82615 -24.82603
 Alpha  occ. eigenvalues --  -24.82592 -24.82570 -19.34591 -19.33132 -19.33107
 Alpha  occ. eigenvalues --  -19.23748 -19.23445 -14.52635 -14.50847 -14.50688
 Alpha  occ. eigenvalues --  -10.60801 -10.59633 -10.59591 -10.56491 -10.55675
 Alpha  occ. eigenvalues --  -10.55267 -10.53520 -10.53237 -10.53181 -10.50409
 Alpha  occ. eigenvalues --  -10.49360 -10.48883 -10.45763 -10.45656 -10.38577
 Alpha  occ. eigenvalues --   -1.44423  -1.43268  -1.43166  -1.42601  -1.42190
 Alpha  occ. eigenvalues --   -1.41607  -1.39737  -1.39115  -1.38818  -1.37193
 Alpha  occ. eigenvalues --   -1.35733  -1.35606  -1.34819  -1.34415  -1.33615
 Alpha  occ. eigenvalues --   -1.33591  -1.33490  -1.33324  -1.33248  -1.33141
 Alpha  occ. eigenvalues --   -1.33010  -1.32664  -1.32605  -1.32356  -1.32062
 Alpha  occ. eigenvalues --   -1.31985  -1.31307  -1.22006  -1.21898  -1.20609
 Alpha  occ. eigenvalues --   -1.20494  -1.17614  -1.11746  -1.08708  -1.06326
 Alpha  occ. eigenvalues --   -0.94541  -0.93866  -0.93421  -0.86796  -0.86328
 Alpha  occ. eigenvalues --   -0.84517  -0.83060  -0.82263  -0.80980  -0.80334
 Alpha  occ. eigenvalues --   -0.79531  -0.77779  -0.76057  -0.76008  -0.74313
 Alpha  occ. eigenvalues --   -0.74249  -0.73305  -0.72695  -0.72144  -0.71961
 Alpha  occ. eigenvalues --   -0.71655  -0.71121  -0.70765  -0.70642  -0.70460
 Alpha  occ. eigenvalues --   -0.70008  -0.69668  -0.69460  -0.69300  -0.68606
 Alpha  occ. eigenvalues --   -0.68441  -0.68241  -0.67900  -0.67349  -0.67083
 Alpha  occ. eigenvalues --   -0.66882  -0.66357  -0.66293  -0.65619  -0.65321
 Alpha  occ. eigenvalues --   -0.64324  -0.64036  -0.63174  -0.61183  -0.60289
 Alpha  occ. eigenvalues --   -0.59890  -0.59816  -0.58511  -0.58152  -0.57946
 Alpha  occ. eigenvalues --   -0.57710  -0.57486  -0.57265  -0.57042  -0.57015
 Alpha  occ. eigenvalues --   -0.56872  -0.56470  -0.56276  -0.56214  -0.56065
 Alpha  occ. eigenvalues --   -0.55746  -0.55617  -0.55442  -0.55284  -0.55138
 Alpha  occ. eigenvalues --   -0.54886  -0.54695  -0.54435  -0.54237  -0.53921
 Alpha  occ. eigenvalues --   -0.53690  -0.53616  -0.53458  -0.53205  -0.53087
 Alpha  occ. eigenvalues --   -0.52970  -0.52827  -0.52571  -0.52411  -0.52329
 Alpha  occ. eigenvalues --   -0.52264  -0.52110  -0.51834  -0.51640  -0.51489
 Alpha  occ. eigenvalues --   -0.51399  -0.51087  -0.51047  -0.50883  -0.50614
 Alpha  occ. eigenvalues --   -0.50575  -0.50364  -0.50205  -0.50073  -0.49908
 Alpha  occ. eigenvalues --   -0.49740  -0.49684  -0.49330  -0.49146  -0.48870
 Alpha  occ. eigenvalues --   -0.48787  -0.48289  -0.47163  -0.45821  -0.45740
 Alpha  occ. eigenvalues --   -0.45272  -0.44658  -0.44505  -0.39826  -0.39340
 Alpha  occ. eigenvalues --   -0.38016  -0.36543  -0.36104
 Alpha virt. eigenvalues --    0.00218   0.04544   0.05277   0.05632   0.06614
 Alpha virt. eigenvalues --    0.06656   0.08607   0.10416   0.12258   0.13912
 Alpha virt. eigenvalues --    0.14823   0.15377   0.16392   0.17119   0.17476

 Mulliken charges:
               1
     1  O   -0.484938
     2  C    0.850163
     3  N   -0.623728
     4  C    0.798381
     5  F   -0.262155
     6  F   -0.259188
     7  C    0.379683
     8  F   -0.264874
     9  O   -0.520410
    10  C    1.000957
    11  F   -0.236629
    12  F   -0.239250
    13  F   -0.238115
    14  C    0.821179
    15  F   -0.240103
    16  F   -0.237044
    17  F   -0.255202
    18  C    0.127037
    19  N   -0.611598
    20  C    0.768899
    21  F   -0.266702
    22  F   -0.280148
    23  C    0.423176
    24  F   -0.240981
    25  O   -0.513947
    26  C    0.995316
    27  F   -0.246695
    28  F   -0.238947
    29  F   -0.238339
    30  C    0.805653
    31  F   -0.248926
    32  F   -0.247618
    33  F   -0.242237
    34  C    0.827716
    35  O   -0.488496
    36  N   -0.670368
    37  C    0.755762
    38  F   -0.253427
    39  F   -0.249564
    40  C    0.434812
    41  F   -0.256509
    42  O   -0.507662
    43  C    0.994589
    44  F   -0.241363
    45  F   -0.242925
    46  F   -0.239666
    47  C    0.813775
    48  F   -0.244510
    49  F   -0.259760
    50  F   -0.242946
    51  H    0.163727
    52  H    0.174146
 Sum of Mulliken charges =   0.00000

 Dipole moment (field-independent basis, Debye):
    X=             -3.7144    Y=             -0.8035    Z=              0.4066  Tot=              3.8220
 Quadrupole moment (field-independent basis, Debye-Ang):
   XX=           -266.1795   YY=           -271.4168   ZZ=           -265.7352
   XY=              2.6924   XZ=              3.1224   YZ=             -6.9838

 Normal termination of Gaussian 09 at Tue Mar  5 17:56:03 2024.
