 Gaussian 09, Revision D.01,
 Gaussian 09:  ES64L-G09RevD.01 24-Apr-2013

 ----------------------------------------------------------------------
 #p CAM-B3LYP/6-31G(d,p) SCRF=(PCM,Solvent=Generic,Read) NoSymm out=wfn
 ----------------------------------------------------------------------

 ------------------
 Title A153226972_0
 ------------------
 Symbolic Z-matrix:
 Charge =  0 Multiplicity = 1

                          Input orientation:
 ---------------------------------------------------------------------
 Center     Atomic      Atomic             Coordinates (Angstroms)
 Number     Number       Type             X           Y           Z
 ---------------------------------------------------------------------
      1          6           0        0.229411   -0.011010   -3.314227
      2          7           0        0.228320   -0.158978   -1.866789
      3          6           0       -0.826446   -0.834508   -1.287799
      4          8           0       -1.733095   -1.312534   -1.967486
      5          7           0       -0.827142   -0.877845    0.083195
      6          6           0       -1.996830   -1.446064    0.741384
      7          9           0       -1.616104   -1.885309    1.976269
      8          9           0       -2.338093   -2.597933    0.092865
      9          6           0       -3.235549   -0.516806    0.858268
     10          9           0       -2.943976    0.523258    1.691994
     11          8           0       -3.510246    0.087517   -0.410338
     12          6           0       -4.749999    0.742700   -0.456778
     13          9           0       -5.729495   -0.166208   -0.583100
     14          9           0       -4.764358    1.547655   -1.535404
     15          9           0       -4.945529    1.488014    0.641118
     16          6           0       -4.335901   -1.388415    1.480978
     17          9           0       -5.436349   -0.657822    1.784239
     18          9           0       -4.742099   -2.365669    0.639550
     19          9           0       -3.949792   -1.981159    2.631629
     20          6           0       -0.032102   -0.030580    0.815587
     21          8           0       -0.376718    0.371562    1.922746
     22          7           0        1.138453    0.367430    0.212165
     23          6           0        2.073687    1.119006    1.045572
     24          9           0        2.070640    0.542652    2.283884
     25          9           0        1.588676    2.376872    1.232895
     26          6           0        3.560992    1.191700    0.582939
     27          9           0        3.696306    2.210052   -0.331903
     28          8           0        4.019330    0.037019   -0.140057
     29          6           0        4.299003   -1.079892    0.661130
     30          9           0        5.425978   -0.881965    1.355027
     31          9           0        3.270341   -1.317001    1.486281
     32          9           0        4.454704   -2.147802   -0.140938
     33          6           0        4.390858    1.619256    1.801360
     34          9           0        4.362084    0.713176    2.802966
     35          9           0        5.694650    1.773860    1.459409
     36          9           0        3.975786    2.797683    2.315896
     37          6           0        1.122075    0.595602   -1.135922
     38          8           0        1.819143    1.451209   -1.671019
     39          1           0       -0.416527    0.833220   -3.575783
     40          1           0        1.240258    0.183532   -3.684975
     41          1           0       -0.154349   -0.915478   -3.795723
 ---------------------------------------------------------------------

 SCF Done:  E(RCAM-B3LYP) =  -2795.80820629     A.U. after   13 cycles

 Alpha  occ. eigenvalues --  -24.84659 -24.84233 -24.84061 -24.83753 -24.83624
 Alpha  occ. eigenvalues --  -24.83621 -24.83525 -24.83445 -24.83124 -24.83048
 Alpha  occ. eigenvalues --  -24.83041 -24.83024 -24.82933 -24.82907 -24.82879
 Alpha  occ. eigenvalues --  -24.82811 -24.82787 -24.82382 -19.33603 -19.33164
 Alpha  occ. eigenvalues --  -19.25136 -19.24352 -19.23842 -14.52935 -14.52846
 Alpha  occ. eigenvalues --  -14.50675 -10.60216 -10.59702 -10.55523 -10.55470
 Alpha  occ. eigenvalues --  -10.53561 -10.53370 -10.49427 -10.49131 -10.47049
 Alpha  occ. eigenvalues --  -10.45857 -10.45693 -10.31336  -1.44048  -1.43349
 Alpha  occ. eigenvalues --   -1.41920  -1.41822  -1.39228  -1.39122  -1.35699
 Alpha  occ. eigenvalues --   -1.34918  -1.34705  -1.33996  -1.33661  -1.33405
 Alpha  occ. eigenvalues --   -1.32848  -1.32814  -1.32293  -1.32214  -1.31838
 Alpha  occ. eigenvalues --   -1.31722  -1.23631  -1.21027  -1.20739  -1.18409
 Alpha  occ. eigenvalues --   -1.17912  -1.10328  -1.08581  -1.06676  -0.93763
 Alpha  occ. eigenvalues --   -0.93068  -0.86822  -0.84277  -0.84135  -0.82729
 Alpha  occ. eigenvalues --   -0.82160  -0.79398  -0.78204  -0.76261  -0.75642
 Alpha  occ. eigenvalues --   -0.74655  -0.73823  -0.73081  -0.72420  -0.71515
 Alpha  occ. eigenvalues --   -0.71250  -0.70605  -0.70280  -0.69771  -0.69264
 Alpha  occ. eigenvalues --   -0.68843  -0.68593  -0.67904  -0.67140  -0.67073
 Alpha  occ. eigenvalues --   -0.66549  -0.65951  -0.64578  -0.63804  -0.62535
 Alpha  occ. eigenvalues --   -0.60028  -0.59718  -0.58594  -0.58024  -0.57750
 Alpha  occ. eigenvalues --   -0.57606  -0.57235  -0.56831  -0.56637  -0.56362
 Alpha  occ. eigenvalues --   -0.56314  -0.56114  -0.55856  -0.55715  -0.55520
 Alpha  occ. eigenvalues --   -0.54996  -0.54930  -0.54433  -0.54317  -0.54128
 Alpha  occ. eigenvalues --   -0.53824  -0.53635  -0.53564  -0.53165  -0.52972
 Alpha  occ. eigenvalues --   -0.52634  -0.52304  -0.51997  -0.51691  -0.51291
 Alpha  occ. eigenvalues --   -0.50918  -0.50823  -0.50492  -0.50457  -0.50276
 Alpha  occ. eigenvalues --   -0.50206  -0.49942  -0.49817  -0.49509  -0.49101
 Alpha  occ. eigenvalues --   -0.48970  -0.48566  -0.48284  -0.48202  -0.47952
 Alpha  occ. eigenvalues --   -0.45919  -0.44729  -0.43482  -0.41549  -0.40435
 Alpha  occ. eigenvalues --   -0.39037  -0.38137  -0.36520  -0.36303
 Alpha virt. eigenvalues --   -0.00172   0.00923   0.05460   0.05598   0.07736
 Alpha virt. eigenvalues --    0.07946   0.10413   0.14013   0.15204   0.16234
 Alpha virt. eigenvalues --    0.17108   0.17289   0.17796   0.18679   0.19444

 Mulliken charges:
               1
     1  C   -0.182857
     2  N   -0.577580
     3  C    0.837645
     4  O   -0.498452
     5  N   -0.641255
     6  C    0.761272
     7  F   -0.259216
     8  F   -0.253606
     9  C    0.438863
    10  F   -0.252871
    11  O   -0.507675
    12  C    0.996713
    13  F   -0.242942
    14  F   -0.239651
    15  F   -0.242089
    16  C    0.812800
    17  F   -0.259269
    18  F   -0.246023
    19  F   -0.243645
    20  C    0.813299
    21  O   -0.462837
    22  N   -0.634201
    23  C    0.797408
    24  F   -0.270333
    25  F   -0.251152
    26  C    0.419723
    27  F   -0.261215
    28  O   -0.504378
    29  C    0.980674
    30  F   -0.234052
    31  F   -0.243387
    32  F   -0.237546
    33  C    0.810036
    34  F   -0.247891
    35  F   -0.256601
    36  F   -0.242412
    37  C    0.820429
    38  O   -0.489366
    39  H    0.161133
    40  H    0.165552
    41  H    0.166951
 Sum of Mulliken charges =   0.00000

 Dipole moment (field-independent basis, Debye):
    X=              0.9655    Y=             -1.1262    Z=             -2.5417  Tot=              2.9429
 Quadrupole moment (field-independent basis, Debye-Ang):
   XX=           -207.9667   YY=           -205.0847   ZZ=           -201.0735
   XY=            -10.2943   XZ=             -0.1587   YZ=             -1.6088

 Normal termination of Gaussian 09 at Sun Mar  3 17:22:34 2024.
