 Gaussian 09, Revision D.01,
 Gaussian 09:  ES64L-G09RevD.01 24-Apr-2013

 ----------------------------------------------------------------------
 #p CAM-B3LYP/6-31G(d,p) SCRF=(PCM,Solvent=Generic,Read) NoSymm out=wfn
 ----------------------------------------------------------------------

 ------------------
 Title A126125652_0
 ------------------
 Symbolic Z-matrix:
 Charge =  0 Multiplicity = 1

                          Input orientation:
 ---------------------------------------------------------------------
 Center     Atomic      Atomic             Coordinates (Angstroms)
 Number     Number       Type             X           Y           Z
 ---------------------------------------------------------------------
      1          6           0       -3.178877    4.998920    0.333095
      2          6           0       -1.951243    4.966471   -0.563986
      3          6           0       -1.527368    3.552869   -0.965385
      4          6           0       -1.046442    2.705717    0.217059
      5          7           0       -0.552721    1.399368   -0.229858
      6          6           0       -1.461649    0.368160   -0.362230
      7          8           0       -2.642646    0.506654   -0.050868
      8          7           0       -0.962947   -0.819841   -0.831295
      9          6           0       -1.870605   -1.961068   -0.852139
     10          9           0       -1.379374   -2.891342   -1.721731
     11          9           0       -3.039569   -1.573475   -1.437660
     12          6           0       -2.145232   -2.617301    0.526747
     13          9           0       -2.805882   -1.727840    1.324472
     14          8           0       -0.902792   -2.865213    1.193921
     15          6           0       -1.033915   -3.676662    2.330839
     16          9           0       -2.075832   -3.288902    3.081932
     17          9           0        0.090341   -3.571095    3.062543
     18          9           0       -1.184878   -4.954825    1.950456
     19          6           0       -3.046434   -3.824268    0.231038
     20          9           0       -2.394524   -4.781704   -0.465861
     21          9           0       -3.485309   -4.407335    1.373000
     22          9           0       -4.152310   -3.495503   -0.471230
     23          6           0        0.385573   -1.066219   -0.867923
     24          8           0        0.843535   -2.204614   -0.814949
     25          7           0        1.207165    0.029419   -0.926739
     26          6           0        2.639735   -0.172961   -1.098117
     27          9           0        3.105251    0.842496   -1.895614
     28          9           0        2.857992   -1.276570   -1.862835
     29          6           0        3.514867   -0.208951    0.190068
     30          9           0        3.017219    0.726799    1.074239
     31          8           0        4.864451    0.246025   -0.001761
     32          6           0        5.697225   -0.656183   -0.681619
     33          9           0        6.865092   -0.045747   -0.949960
     34          9           0        5.937263   -1.725807    0.090641
     35          9           0        5.137055   -1.042537   -1.833674
     36          6           0        3.362938   -1.560934    0.885234
     37          9           0        4.179737   -1.638544    1.965471
     38          9           0        3.658186   -2.603746    0.086498
     39          9           0        2.103709   -1.731426    1.353083
     40          6           0        0.784528    1.281983   -0.553896
     41          8           0        1.551155    2.240504   -0.486198
     42          1           0       -3.490469    6.034167    0.505454
     43          1           0       -4.016411    4.465331   -0.127209
     44          1           0       -2.975105    4.548418    1.308815
     45          1           0       -1.120237    5.477938   -0.064563
     46          1           0       -2.171161    5.534962   -1.475516
     47          1           0       -2.358557    3.047927   -1.472902
     48          1           0       -0.720439    3.632189   -1.704740
     49          1           0       -1.861364    2.551528    0.932465
     50          1           0       -0.248723    3.232770    0.753389
 ---------------------------------------------------------------------

 SCF Done:  E(RCAM-B3LYP) =  -2913.69025995     A.U. after   13 cycles

 Alpha  occ. eigenvalues --  -24.84070 -24.83758 -24.83752 -24.83665 -24.83638
 Alpha  occ. eigenvalues --  -24.83634 -24.83524 -24.83453 -24.83336 -24.83328
 Alpha  occ. eigenvalues --  -24.83107 -24.83087 -24.83006 -24.82928 -24.82871
 Alpha  occ. eigenvalues --  -24.82836 -24.82735 -24.82051 -19.33280 -19.33158
 Alpha  occ. eigenvalues --  -19.24493 -19.23876 -19.23827 -14.53213 -14.53044
 Alpha  occ. eigenvalues --  -14.50510 -10.59792 -10.59697 -10.55511 -10.55390
 Alpha  occ. eigenvalues --  -10.53573 -10.53408 -10.49232 -10.49148 -10.46882
 Alpha  occ. eigenvalues --  -10.45742 -10.45724 -10.31421 -10.26384 -10.25770
 Alpha  occ. eigenvalues --  -10.24634  -1.43606  -1.43354  -1.41850  -1.41846
 Alpha  occ. eigenvalues --   -1.39227  -1.38900  -1.35790  -1.35539  -1.34118
 Alpha  occ. eigenvalues --   -1.33664  -1.33564  -1.33417  -1.32876  -1.32816
 Alpha  occ. eigenvalues --   -1.32267  -1.32242  -1.31725  -1.31302  -1.23385
 Alpha  occ. eigenvalues --   -1.20727  -1.20640  -1.17976  -1.17860  -1.10096
 Alpha  occ. eigenvalues --   -1.08649  -1.06497  -0.93892  -0.93060  -0.89470
 Alpha  occ. eigenvalues --   -0.86204  -0.84158  -0.83520  -0.82490  -0.82147
 Alpha  occ. eigenvalues --   -0.79289  -0.78848  -0.77033  -0.75873  -0.74667
 Alpha  occ. eigenvalues --   -0.74308  -0.73386  -0.73081  -0.72326  -0.71583
 Alpha  occ. eigenvalues --   -0.71208  -0.70586  -0.70338  -0.69850  -0.69062
 Alpha  occ. eigenvalues --   -0.68822  -0.68548  -0.67838  -0.67449  -0.66729
 Alpha  occ. eigenvalues --   -0.66402  -0.65812  -0.65123  -0.64600  -0.64013
 Alpha  occ. eigenvalues --   -0.61936  -0.60050  -0.59359  -0.58729  -0.57736
 Alpha  occ. eigenvalues --   -0.57542  -0.57414  -0.57266  -0.57202  -0.56475
 Alpha  occ. eigenvalues --   -0.56273  -0.56054  -0.55904  -0.55673  -0.55388
 Alpha  occ. eigenvalues --   -0.55203  -0.55030  -0.55000  -0.54826  -0.54314
 Alpha  occ. eigenvalues --   -0.54127  -0.53740  -0.53626  -0.53510  -0.53370
 Alpha  occ. eigenvalues --   -0.52824  -0.52659  -0.52222  -0.52095  -0.51851
 Alpha  occ. eigenvalues --   -0.51612  -0.51455  -0.50976  -0.50861  -0.50654
 Alpha  occ. eigenvalues --   -0.50500  -0.50298  -0.50116  -0.50031  -0.49843
 Alpha  occ. eigenvalues --   -0.49697  -0.49084  -0.49049  -0.48807  -0.48630
 Alpha  occ. eigenvalues --   -0.48019  -0.47762  -0.46527  -0.45855  -0.44811
 Alpha  occ. eigenvalues --   -0.44203  -0.43736  -0.40859  -0.40680  -0.40106
 Alpha  occ. eigenvalues --   -0.39464  -0.39239  -0.38556  -0.38340  -0.35980
 Alpha  occ. eigenvalues --   -0.35827
 Alpha virt. eigenvalues --    0.00343   0.00614   0.05223   0.05556   0.06735
 Alpha virt. eigenvalues --    0.08929   0.11138   0.12901   0.14024   0.15410
 Alpha virt. eigenvalues --    0.16083   0.16844   0.17358   0.17695   0.18582

 Mulliken charges:
               1
     1  C   -0.324053
     2  C   -0.187613
     3  C   -0.184026
     4  C   -0.059981
     5  N   -0.596914
     6  C    0.835372
     7  O   -0.502553
     8  N   -0.648773
     9  C    0.762080
    10  F   -0.255052
    11  F   -0.254708
    12  C    0.437106
    13  F   -0.255690
    14  O   -0.506079
    15  C    0.996841
    16  F   -0.243158
    17  F   -0.238799
    18  F   -0.242689
    19  C    0.813772
    20  F   -0.245557
    21  F   -0.259095
    22  F   -0.243624
    23  C    0.849483
    24  O   -0.482694
    25  N   -0.638180
    26  C    0.758780
    27  F   -0.268399
    28  F   -0.248346
    29  C    0.435322
    30  F   -0.271855
    31  O   -0.495857
    32  C    0.976412
    33  F   -0.237227
    34  F   -0.239284
    35  F   -0.232976
    36  C    0.821648
    37  F   -0.258537
    38  F   -0.243344
    39  F   -0.246951
    40  C    0.851425
    41  O   -0.505339
    42  H    0.108850
    43  H    0.111987
    44  H    0.107853
    45  H    0.105460
    46  H    0.107066
    47  H    0.115478
    48  H    0.113938
    49  H    0.155103
    50  H    0.153376
 Sum of Mulliken charges =   0.00000

 Dipole moment (field-independent basis, Debye):
    X=             -0.9607    Y=              2.4075    Z=              0.0310  Tot=              2.5923
 Quadrupole moment (field-independent basis, Debye-Ang):
   XX=           -231.4661   YY=           -222.0083   ZZ=           -217.4854
   XY=             -7.4895   XZ=              1.1641   YZ=             -1.4844

 Normal termination of Gaussian 09 at Sun Mar  3 17:30:02 2024.
