 Gaussian 09, Revision D.01,
 Gaussian 09:  ES64L-G09RevD.01 24-Apr-2013

 ----------------------------------------------------------------------
 #p CAM-B3LYP/6-31G(d,p) SCRF=(PCM,Solvent=Generic,Read) NoSymm out=wfn
 ----------------------------------------------------------------------

 -------------------
 Title A126125652_p1
 -------------------
 Symbolic Z-matrix:
 Charge =  1 Multiplicity = 2

                          Input orientation:
 ---------------------------------------------------------------------
 Center     Atomic      Atomic             Coordinates (Angstroms)
 Number     Number       Type             X           Y           Z
 ---------------------------------------------------------------------
      1          6           0       -3.178877    4.998920    0.333095
      2          6           0       -1.951243    4.966471   -0.563986
      3          6           0       -1.527368    3.552869   -0.965385
      4          6           0       -1.046442    2.705717    0.217059
      5          7           0       -0.552721    1.399368   -0.229858
      6          6           0       -1.461649    0.368160   -0.362230
      7          8           0       -2.642646    0.506654   -0.050868
      8          7           0       -0.962947   -0.819841   -0.831295
      9          6           0       -1.870605   -1.961068   -0.852139
     10          9           0       -1.379374   -2.891342   -1.721731
     11          9           0       -3.039569   -1.573475   -1.437660
     12          6           0       -2.145232   -2.617301    0.526747
     13          9           0       -2.805882   -1.727840    1.324472
     14          8           0       -0.902792   -2.865213    1.193921
     15          6           0       -1.033915   -3.676662    2.330839
     16          9           0       -2.075832   -3.288902    3.081932
     17          9           0        0.090341   -3.571095    3.062543
     18          9           0       -1.184878   -4.954825    1.950456
     19          6           0       -3.046434   -3.824268    0.231038
     20          9           0       -2.394524   -4.781704   -0.465861
     21          9           0       -3.485309   -4.407335    1.373000
     22          9           0       -4.152310   -3.495503   -0.471230
     23          6           0        0.385573   -1.066219   -0.867923
     24          8           0        0.843535   -2.204614   -0.814949
     25          7           0        1.207165    0.029419   -0.926739
     26          6           0        2.639735   -0.172961   -1.098117
     27          9           0        3.105251    0.842496   -1.895614
     28          9           0        2.857992   -1.276570   -1.862835
     29          6           0        3.514867   -0.208951    0.190068
     30          9           0        3.017219    0.726799    1.074239
     31          8           0        4.864451    0.246025   -0.001761
     32          6           0        5.697225   -0.656183   -0.681619
     33          9           0        6.865092   -0.045747   -0.949960
     34          9           0        5.937263   -1.725807    0.090641
     35          9           0        5.137055   -1.042537   -1.833674
     36          6           0        3.362938   -1.560934    0.885234
     37          9           0        4.179737   -1.638544    1.965471
     38          9           0        3.658186   -2.603746    0.086498
     39          9           0        2.103709   -1.731426    1.353083
     40          6           0        0.784528    1.281983   -0.553896
     41          8           0        1.551155    2.240504   -0.486198
     42          1           0       -3.490469    6.034167    0.505454
     43          1           0       -4.016411    4.465331   -0.127209
     44          1           0       -2.975105    4.548418    1.308815
     45          1           0       -1.120237    5.477938   -0.064563
     46          1           0       -2.171161    5.534962   -1.475516
     47          1           0       -2.358557    3.047927   -1.472902
     48          1           0       -0.720439    3.632189   -1.704740
     49          1           0       -1.861364    2.551528    0.932465
     50          1           0       -0.248723    3.232770    0.753389
 ---------------------------------------------------------------------

 SCF Done:  E(UCAM-B3LYP) =  -2913.33390298     A.U. after   77 cycles

 Alpha  occ. eigenvalues --  -24.90010 -24.89363 -24.89260 -24.88901 -24.87954
 Alpha  occ. eigenvalues --  -24.87669 -24.87397 -24.87152 -24.86716 -24.86624
 Alpha  occ. eigenvalues --  -24.86386 -24.86160 -24.86075 -24.85997 -24.85810
 Alpha  occ. eigenvalues --  -24.85747 -24.85485 -24.85064 -19.40105 -19.38067
 Alpha  occ. eigenvalues --  -19.36889 -19.36614 -19.29900 -14.68798 -14.60481
 Alpha  occ. eigenvalues --  -14.57803 -10.63124 -10.62317 -10.61355 -10.60185
 Alpha  occ. eigenvalues --  -10.58375 -10.58092 -10.57616 -10.55489 -10.55382
 Alpha  occ. eigenvalues --  -10.52709 -10.51959 -10.36020 -10.30060 -10.28386
 Alpha  occ. eigenvalues --  -10.26685  -1.47367  -1.46082  -1.45835  -1.45778
 Alpha  occ. eigenvalues --   -1.44524  -1.43317  -1.41292  -1.38999  -1.38493
 Alpha  occ. eigenvalues --   -1.37869  -1.37140  -1.36545  -1.36289  -1.36163
 Alpha  occ. eigenvalues --   -1.35969  -1.35707  -1.34870  -1.34630  -1.34478
 Alpha  occ. eigenvalues --   -1.30223  -1.25636  -1.25235  -1.24059  -1.22573
 Alpha  occ. eigenvalues --   -1.16651  -1.14100  -1.00049  -0.97579  -0.94477
 Alpha  occ. eigenvalues --   -0.93691  -0.91679  -0.89118  -0.87006  -0.85993
 Alpha  occ. eigenvalues --   -0.85205  -0.84486  -0.82417  -0.81784  -0.79804
 Alpha  occ. eigenvalues --   -0.78668  -0.78144  -0.77114  -0.76314  -0.76049
 Alpha  occ. eigenvalues --   -0.75690  -0.74656  -0.73578  -0.73563  -0.72987
 Alpha  occ. eigenvalues --   -0.72793  -0.72776  -0.72495  -0.71429  -0.71233
 Alpha  occ. eigenvalues --   -0.70828  -0.70007  -0.69658  -0.69348  -0.68812
 Alpha  occ. eigenvalues --   -0.68637  -0.67908  -0.65860  -0.65093  -0.63708
 Alpha  occ. eigenvalues --   -0.63339  -0.63165  -0.62316  -0.61951  -0.61879
 Alpha  occ. eigenvalues --   -0.61151  -0.60598  -0.60346  -0.60248  -0.60005
 Alpha  occ. eigenvalues --   -0.59756  -0.59603  -0.59467  -0.59056  -0.59018
 Alpha  occ. eigenvalues --   -0.58544  -0.58389  -0.57964  -0.57454  -0.57362
 Alpha  occ. eigenvalues --   -0.57052  -0.56885  -0.56651  -0.56523  -0.55753
 Alpha  occ. eigenvalues --   -0.55682  -0.55376  -0.55194  -0.54867  -0.54710
 Alpha  occ. eigenvalues --   -0.54630  -0.54233  -0.54135  -0.53727  -0.53398
 Alpha  occ. eigenvalues --   -0.53110  -0.53011  -0.52906  -0.52719  -0.52505
 Alpha  occ. eigenvalues --   -0.52164  -0.51593  -0.51379  -0.51162  -0.50918
 Alpha  occ. eigenvalues --   -0.49622  -0.49416  -0.48367  -0.48106  -0.47227
 Alpha  occ. eigenvalues --   -0.46369  -0.44327  -0.43379  -0.42472  -0.42314
 Alpha  occ. eigenvalues --   -0.41117
 Alpha virt. eigenvalues --   -0.10137  -0.07929  -0.01175  -0.00472   0.01691
 Alpha virt. eigenvalues --    0.02757   0.05267   0.07821   0.09014   0.09590
 Alpha virt. eigenvalues --    0.11102   0.11826   0.12996   0.13757   0.14087

  Beta  occ. eigenvalues --  -24.89993 -24.89302 -24.89212 -24.88874 -24.87930
  Beta  occ. eigenvalues --  -24.87666 -24.87396 -24.87154 -24.86714 -24.86619
  Beta  occ. eigenvalues --  -24.86386 -24.86160 -24.86074 -24.85997 -24.85810
  Beta  occ. eigenvalues --  -24.85747 -24.85485 -24.85064 -19.38911 -19.38020
  Beta  occ. eigenvalues --  -19.36606 -19.36035 -19.29944 -14.67887 -14.60552
  Beta  occ. eigenvalues --  -14.57857 -10.63126 -10.62317 -10.61392 -10.60175
  Beta  occ. eigenvalues --  -10.58372 -10.58092 -10.57880 -10.55663 -10.55344
  Beta  occ. eigenvalues --  -10.52712 -10.51950 -10.36011 -10.30042 -10.28377
  Beta  occ. eigenvalues --  -10.26682  -1.47317  -1.46064  -1.45779  -1.45730
  Beta  occ. eigenvalues --   -1.44515  -1.43303  -1.41197  -1.38996  -1.38377
  Beta  occ. eigenvalues --   -1.37830  -1.37123  -1.36505  -1.36272  -1.36158
  Beta  occ. eigenvalues --   -1.35968  -1.35706  -1.34849  -1.34491  -1.33388
  Beta  occ. eigenvalues --   -1.28523  -1.25310  -1.25120  -1.24037  -1.20408
  Beta  occ. eigenvalues --   -1.16484  -1.13923  -0.99881  -0.97536  -0.94288
  Beta  occ. eigenvalues --   -0.93478  -0.91489  -0.89040  -0.86918  -0.85895
  Beta  occ. eigenvalues --   -0.85178  -0.84338  -0.82259  -0.81560  -0.79762
  Beta  occ. eigenvalues --   -0.78536  -0.77878  -0.76992  -0.76221  -0.75976
  Beta  occ. eigenvalues --   -0.75649  -0.74482  -0.73553  -0.73499  -0.72912
  Beta  occ. eigenvalues --   -0.72742  -0.72634  -0.71851  -0.71223  -0.71202
  Beta  occ. eigenvalues --   -0.70503  -0.69962  -0.69570  -0.69172  -0.68616
  Beta  occ. eigenvalues --   -0.68235  -0.66891  -0.65075  -0.63804  -0.63309
  Beta  occ. eigenvalues --   -0.63175  -0.62900  -0.61807  -0.61561  -0.61187
  Beta  occ. eigenvalues --   -0.60876  -0.60315  -0.60214  -0.60082  -0.59930
  Beta  occ. eigenvalues --   -0.59626  -0.59429  -0.59345  -0.59003  -0.58700
  Beta  occ. eigenvalues --   -0.58480  -0.58284  -0.57953  -0.57375  -0.57232
  Beta  occ. eigenvalues --   -0.56965  -0.56627  -0.56556  -0.56373  -0.55663
  Beta  occ. eigenvalues --   -0.55506  -0.55282  -0.54865  -0.54689  -0.54630
  Beta  occ. eigenvalues --   -0.54458  -0.53846  -0.53577  -0.53401  -0.53301
  Beta  occ. eigenvalues --   -0.53006  -0.52935  -0.52560  -0.52441  -0.52032
  Beta  occ. eigenvalues --   -0.51382  -0.51212  -0.50600  -0.50443  -0.49416
  Beta  occ. eigenvalues --   -0.48243  -0.48059  -0.47979  -0.47086  -0.45262
  Beta  occ. eigenvalues --   -0.43870  -0.42980  -0.42345  -0.42196  -0.40636
  Beta virt. eigenvalues --   -0.32587  -0.08262  -0.06826  -0.00982  -0.00425
  Beta virt. eigenvalues --    0.01707   0.03163   0.05332   0.07963   0.09045
  Beta virt. eigenvalues --    0.09659   0.11176   0.12011   0.13022   0.13823

 Mulliken charges and spin densities:
               1          2
     1  C   -0.327807   0.001695
     2  C   -0.190480   0.005032
     3  C   -0.193061   0.009348
     4  C   -0.086229   0.003340
     5  N   -0.593753  -0.019100
     6  C    0.868224   0.004399
     7  O   -0.448507  -0.016427
     8  N   -0.643250  -0.021057
     9  C    0.760590  -0.000519
    10  F   -0.244616   0.005438
    11  F   -0.237493  -0.000435
    12  C    0.442527  -0.000911
    13  F   -0.247579   0.000069
    14  O   -0.523027   0.001655
    15  C    1.004494   0.000120
    16  F   -0.237344   0.000217
    17  F   -0.234918  -0.000003
    18  F   -0.236862   0.000041
    19  C    0.822710  -0.000026
    20  F   -0.242117   0.000077
    21  F   -0.251856  -0.000044
    22  F   -0.238269   0.000034
    23  C    0.904257  -0.151054
    24  O   -0.289934   0.461806
    25  N   -0.524603   0.419484
    26  C    0.747665  -0.019797
    27  F   -0.231490   0.015947
    28  F   -0.219371   0.004650
    29  C    0.442896   0.013777
    30  F   -0.253926   0.012279
    31  O   -0.470660   0.016394
    32  C    0.986378  -0.000637
    33  F   -0.226179   0.000070
    34  F   -0.230948   0.000568
    35  F   -0.230523   0.000304
    36  C    0.829259   0.002522
    37  F   -0.239374   0.001588
    38  F   -0.230947   0.000936
    39  F   -0.245540   0.006578
    40  C    0.900574  -0.099758
    41  O   -0.349057   0.335724
    42  H    0.122331   0.001705
    43  H    0.118329  -0.000087
    44  H    0.110529   0.000371
    45  H    0.115686   0.000403
    46  H    0.123879   0.001889
    47  H    0.134646   0.001757
    48  H    0.122600  -0.000012
    49  H    0.185004  -0.000510
    50  H    0.177143   0.000157
 Sum of Mulliken charges =   1.00000   1.00000

 Dipole moment (field-independent basis, Debye):
    X=              3.0095    Y=              2.5158    Z=             -2.6568  Tot=              4.7376
 Quadrupole moment (field-independent basis, Debye-Ang):
   XX=           -202.6557   YY=           -196.5665   ZZ=           -208.7296
   XY=             -9.2298   XZ=             -1.7916   YZ=             -1.6822

 Normal termination of Gaussian 09 at Sun Mar  3 17:36:07 2024.
