 Gaussian 09, Revision D.01,
 Gaussian 09:  ES64L-G09RevD.01 24-Apr-2013

 ----------------------------------------------------------------------
 #p CAM-B3LYP/6-31G(d,p) opt SCRF=(PCM,Solvent=Generic,Read) NoSymm out
 =wfn
 ----------------------------------------------------------------------

 ----------------
 Title EHOPA0_neu
 ----------------
 Symbolic Z-matrix:
 Charge =  0 Multiplicity = 1

 SCF Done:  E(RCAM-B3LYP) =  -2167.58749265     A.U. after   13 cycles
 SCF Done:  E(RCAM-B3LYP) =  -2167.60718278     A.U. after   12 cycles
 SCF Done:  E(RCAM-B3LYP) =  -2167.61193225     A.U. after   12 cycles
 SCF Done:  E(RCAM-B3LYP) =  -2167.61331044     A.U. after   12 cycles
 SCF Done:  E(RCAM-B3LYP) =  -2167.61341602     A.U. after   12 cycles
 SCF Done:  E(RCAM-B3LYP) =  -2167.61414939     A.U. after   12 cycles
 SCF Done:  E(RCAM-B3LYP) =  -2167.61446139     A.U. after   12 cycles
 SCF Done:  E(RCAM-B3LYP) =  -2167.61466994     A.U. after   11 cycles
 SCF Done:  E(RCAM-B3LYP) =  -2167.61483068     A.U. after   11 cycles
 SCF Done:  E(RCAM-B3LYP) =  -2167.61481026     A.U. after   11 cycles
 SCF Done:  E(RCAM-B3LYP) =  -2167.61514088     A.U. after    9 cycles
 SCF Done:  E(RCAM-B3LYP) =  -2167.61514221     A.U. after    9 cycles
 SCF Done:  E(RCAM-B3LYP) =  -2167.61514354     A.U. after    9 cycles
 SCF Done:  E(RCAM-B3LYP) =  -2167.61514501     A.U. after    9 cycles
 SCF Done:  E(RCAM-B3LYP) =  -2167.61514628     A.U. after    8 cycles
 SCF Done:  E(RCAM-B3LYP) =  -2167.61514653     A.U. after    9 cycles
 SCF Done:  E(RCAM-B3LYP) =  -2167.61514662     A.U. after    7 cycles
 SCF Done:  E(RCAM-B3LYP) =  -2167.61514666     A.U. after    7 cycles
 SCF Done:  E(RCAM-B3LYP) =  -2167.61514668     A.U. after    7 cycles
 SCF Done:  E(RCAM-B3LYP) =  -2167.61514669     A.U. after    7 cycles
 Optimization completed.
    -- Stationary point found.

                          Input orientation:
 ---------------------------------------------------------------------
 Center     Atomic      Atomic             Coordinates (Angstroms)
 Number     Number       Type             X           Y           Z
 ---------------------------------------------------------------------
      1          6           0       -7.050376   -0.536298   -2.223834
      2          6           0       -6.450946   -1.210527   -0.991569
      3          6           0       -5.308747   -0.427340   -0.336969
      4          6           0       -4.057545   -0.323697   -1.210770
      5          6           0       -2.863611    0.413940   -0.583136
      6          6           0       -3.151848    1.874729   -0.206890
      7          6           0       -3.603111    2.748982   -1.373650
      8          6           0       -2.314809   -0.309835    0.650022
      9          8           0       -2.086803   -1.701420    0.469288
     10          6           0       -1.059743   -2.056390   -0.437808
     11          6           0        0.330143   -1.589877   -0.016765
     12          6           0        0.669819   -2.012522    1.411045
     13          7           0        1.922965   -1.434007    1.877437
     14          6           0        1.979425   -0.148095    2.260475
     15          6           0        3.387575    0.344110    2.680739
     16          9           0        3.328752    1.655189    2.959484
     17          9           0        3.768335   -0.325879    3.798358
     18          6           0        4.531706    0.151835    1.661166
     19          9           0        4.712683   -1.190142    1.488743
     20          8           0        5.700853    0.674908    2.222051
     21          6           0        6.364652    1.525148    1.369318
     22          9           0        7.310708    0.853055    0.679116
     23          9           0        6.956691    2.480437    2.069645
     24          6           0        5.300461    2.054206    0.392960
     25          9           0        5.827625    2.427490   -0.777811
     26          9           0        4.681939    3.102049    0.955454
     27          6           0        4.304181    0.878271    0.303742
     28          6           0        4.437215   -0.014806   -0.956959
     29          9           0        4.107598    0.764723   -2.006641
     30          6           0        5.786965   -0.713156   -1.243175
     31          8           0        6.568827    0.045675   -1.999165
     32          8           0        6.040160   -1.813753   -0.841792
     33          9           0        3.501072   -0.983026   -0.842518
     34          9           0        3.030141    1.366136    0.244159
     35          8           0        1.031541    0.609541    2.337617
     36          1           0       -7.899285   -1.106498   -2.611282
     37          1           0       -6.322361   -0.443414   -3.034323
     38          1           0       -7.408719    0.470382   -1.983900
     39          1           0       -7.243313   -1.361442   -0.249638
     40          1           0       -6.092059   -2.211954   -1.260027
     41          1           0       -5.672450    0.574545   -0.075693
     42          1           0       -5.049112   -0.917836    0.607354
     43          1           0       -3.735605   -1.338587   -1.469701
     44          1           0       -4.308342    0.166264   -2.157039
     45          1           0       -2.069907    0.437133   -1.343499
     46          1           0       -3.907114    1.907840    0.587383
     47          1           0       -2.241878    2.303303    0.229485
     48          1           0       -4.569845    2.429185   -1.772091
     49          1           0       -3.705196    3.792232   -1.062992
     50          1           0       -2.879301    2.716378   -2.194523
     51          1           0       -1.403969    0.191766    1.002896
     52          1           0       -3.041027   -0.254704    1.466281
     53          1           0       -1.088953   -3.150067   -0.478528
     54          1           0       -1.277268   -1.689558   -1.449960
     55          1           0        1.063878   -2.001025   -0.717742
     56          1           0        0.409242   -0.501266   -0.087820
     57          1           0       -0.124026   -1.694666    2.088031
     58          1           0        0.754479   -3.099031    1.488413
     59          1           0        2.777689   -1.961580    1.788666
     60          1           0        7.399949   -0.437051   -2.145709
 ---------------------------------------------------------------------

 Alpha  occ. eigenvalues --  -24.83631 -24.83476 -24.83399 -24.83198 -24.83181
 Alpha  occ. eigenvalues --  -24.82810 -24.82694 -24.82475 -24.81081 -24.81008
 Alpha  occ. eigenvalues --  -19.32183 -19.31076 -19.25776 -19.21391 -19.20966
 Alpha  occ. eigenvalues --  -14.45129 -10.52832 -10.48857 -10.48709 -10.47060
 Alpha  occ. eigenvalues --  -10.46326 -10.44408 -10.42883 -10.38782 -10.30174
 Alpha  occ. eigenvalues --  -10.29919 -10.28778 -10.25787 -10.24967 -10.24611
 Alpha  occ. eigenvalues --  -10.24433 -10.24068 -10.24057 -10.23927 -10.23873
 Alpha  occ. eigenvalues --   -1.41395  -1.39195  -1.38495  -1.37449  -1.35520
 Alpha  occ. eigenvalues --   -1.34639  -1.33688  -1.32555  -1.32031  -1.30521
 Alpha  occ. eigenvalues --   -1.23499  -1.22577  -1.14457  -1.14037  -1.10514
 Alpha  occ. eigenvalues --   -1.02597  -0.95656  -0.90769  -0.89618  -0.87220
 Alpha  occ. eigenvalues --   -0.86416  -0.85661  -0.82527  -0.80532  -0.79431
 Alpha  occ. eigenvalues --   -0.78284  -0.76583  -0.75494  -0.74769  -0.72534
 Alpha  occ. eigenvalues --   -0.71462  -0.70982  -0.70205  -0.69639  -0.69032
 Alpha  occ. eigenvalues --   -0.67966  -0.67532  -0.66914  -0.66580  -0.66035
 Alpha  occ. eigenvalues --   -0.65613  -0.65134  -0.64610  -0.64118  -0.63670
 Alpha  occ. eigenvalues --   -0.62369  -0.60438  -0.59282  -0.58002  -0.57408
 Alpha  occ. eigenvalues --   -0.56777  -0.56612  -0.56524  -0.55788  -0.55231
 Alpha  occ. eigenvalues --   -0.54756  -0.54576  -0.54320  -0.53747  -0.53712
 Alpha  occ. eigenvalues --   -0.53449  -0.53292  -0.53115  -0.52666  -0.52617
 Alpha  occ. eigenvalues --   -0.52223  -0.51954  -0.51457  -0.50921  -0.50799
 Alpha  occ. eigenvalues --   -0.50388  -0.50105  -0.49940  -0.49267  -0.49068
 Alpha  occ. eigenvalues --   -0.48735  -0.48423  -0.48323  -0.47326  -0.46611
 Alpha  occ. eigenvalues --   -0.45923  -0.45524  -0.45333  -0.44750  -0.43995
 Alpha  occ. eigenvalues --   -0.43263  -0.43110  -0.42186  -0.42095  -0.41832
 Alpha  occ. eigenvalues --   -0.41760  -0.40576  -0.40437  -0.39366  -0.38732
 Alpha  occ. eigenvalues --   -0.38272  -0.37487  -0.36427  -0.35928  -0.34657
 Alpha  occ. eigenvalues --   -0.34040  -0.33304  -0.30565
 Alpha virt. eigenvalues --    0.00331   0.04290   0.05517   0.09194   0.10705
 Alpha virt. eigenvalues --    0.11816   0.12480   0.13848   0.14048   0.14784
 Alpha virt. eigenvalues --    0.15861   0.16136   0.16420   0.17729   0.18181

 Mulliken charges:
               1
     1  C   -0.319328
     2  C   -0.178904
     3  C   -0.178436
     4  C   -0.169545
     5  C   -0.097840
     6  C   -0.180307
     7  C   -0.323350
     8  C    0.052979
     9  O   -0.511551
    10  C    0.059487
    11  C   -0.218833
    12  C   -0.047342
    13  N   -0.537889
    14  C    0.550550
    15  C    0.554107
    16  F   -0.264502
    17  F   -0.276607
    18  C    0.477396
    19  F   -0.272113
    20  O   -0.479459
    21  C    0.740655
    22  F   -0.254692
    23  F   -0.230731
    24  C    0.533922
    25  F   -0.246282
    26  F   -0.250376
    27  C    0.159796
    28  C    0.612183
    29  F   -0.264042
    30  C    0.506805
    31  O   -0.460674
    32  O   -0.426402
    33  F   -0.269679
    34  F   -0.284644
    35  O   -0.512504
    36  H    0.100811
    37  H    0.104796
    38  H    0.101050
    39  H    0.090464
    40  H    0.092920
    41  H    0.088699
    42  H    0.098249
    43  H    0.095888
    44  H    0.089657
    45  H    0.080822
    46  H    0.095427
    47  H    0.100847
    48  H    0.107255
    49  H    0.103098
    50  H    0.101804
    51  H    0.108652
    52  H    0.101186
    53  H    0.103220
    54  H    0.092933
    55  H    0.103501
    56  H    0.126394
    57  H    0.155340
    58  H    0.118008
    59  H    0.287466
    60  H    0.359665
 Sum of Mulliken charges =   0.00000

 Dipole moment (field-independent basis, Debye):
    X=              3.3638    Y=             -1.7420    Z=             -3.4911  Tot=              5.1514
 Quadrupole moment (field-independent basis, Debye-Ang):
   XX=           -175.4499   YY=           -201.3998   ZZ=           -204.2913
   XY=             -4.8259   XZ=            -13.6268   YZ=             -2.3888

 Normal termination of Gaussian 09 at Tue Feb  4 01:15:30 2025.
