 Gaussian 09, Revision D.01,
 Gaussian 09:  ES64L-G09RevD.01 24-Apr-2013

 ----------------------------------------------------------------------
 #p CAM-B3LYP/6-31G(d,p) SCRF=(PCM,Solvent=Generic,Read) NoSymm out=wfn
 ----------------------------------------------------------------------

 -----------------
 Title LDAI1C1_neu
 -----------------
 Symbolic Z-matrix:
 Charge =  0 Multiplicity = 1

                          Input orientation:
 ---------------------------------------------------------------------
 Center     Atomic      Atomic             Coordinates (Angstroms)
 Number     Number       Type             X           Y           Z
 ---------------------------------------------------------------------
      1          6           0       -0.224883    4.918059    1.518237
      2          7           0       -0.141310    3.658825    0.799988
      3          6           0       -1.318143    3.035360    0.448339
      4          8           0       -2.418840    3.499538    0.755629
      5          7           0       -1.198160    1.842930   -0.234476
      6          6           0       -2.424505    1.158870   -0.644100
      7          6           0       -2.957186    0.240693    0.462611
      8          6           0       -4.395404   -0.245370    0.240271
      9          6           0       -4.591567   -1.064303   -1.034539
     10          9           0       -3.668368   -2.065462   -1.056686
     11          9           0       -4.325854   -0.274478   -2.111838
     12          6           0       -6.011518   -1.653836   -1.155669
     13          9           0       -6.921035   -0.645127   -1.176047
     14          9           0       -6.140142   -2.338855   -2.317183
     15          8           0       -6.331000   -2.489043   -0.067197
     16          6           0       -7.435060   -3.281100   -0.398855
     17          9           0       -8.412911   -2.568838   -0.985762
     18          9           0       -7.058137   -4.295913   -1.198019
     19          9           0       -7.926982   -3.808516    0.742514
     20          6           0        0.003475    1.188902   -0.408450
     21          8           0        0.060504    0.044997   -0.864070
     22          7           0        1.134687    1.869858   -0.010129
     23          6           0        2.431829    1.214657   -0.176472
     24          6           0        2.766090    0.310099    1.015860
     25          6           0        4.228800   -0.149256    1.065713
     26          6           0        4.671424   -0.966662   -0.144919
     27          9           0        3.781139   -1.975981   -0.346849
     28          9           0        4.615409   -0.179205   -1.255756
     29          6           0        6.095197   -1.532267    0.021658
     30          9           0        6.973351   -0.517462    0.222996
     31          9           0        6.148471   -2.328792    1.120147
     32          8           0        6.491523   -2.296399   -1.091305
     33          6           0        7.876391   -2.473538   -1.066715
     34          9           0        8.494966   -1.352938   -1.485307
     35          9           0        8.324487   -2.812114    0.155720
     36          9           0        8.191743   -3.469079   -1.921768
     37          6           0        1.095320    3.064480    0.678272
     38          8           0        2.107122    3.555339    1.184939
     39          1           0        0.675459    5.519343    1.360055
     40          1           0       -1.094159    5.497389    1.192801
     41          1           0       -0.323102    4.699400    2.586383
     42          1           0       -2.216838    0.577917   -1.549371
     43          1           0       -3.180352    1.908396   -0.906591
     44          1           0       -2.929838    0.771110    1.423037
     45          1           0       -2.289577   -0.622227    0.576305
     46          1           0       -4.671305   -0.851657    1.111092
     47          1           0       -5.063543    0.623867    0.221090
     48          1           0        2.413489    0.628412   -1.101759
     49          1           0        3.206378    1.981552   -0.294652
     50          1           0        2.104553   -0.564883    1.009355
     51          1           0        2.551781    0.842712    1.951186
     52          1           0        4.873044    0.732251    1.166974
     53          1           0        4.353087   -0.752118    1.973311
 ---------------------------------------------------------------------

 SCF Done:  E(RCAM-B3LYP) =  -2556.20756567     A.U. after   13 cycles

 Alpha  occ. eigenvalues --  -24.83349 -24.83208 -24.82865 -24.82753 -24.82648
 Alpha  occ. eigenvalues --  -24.82639 -24.82552 -24.82470 -24.81984 -24.81888
 Alpha  occ. eigenvalues --  -24.80861 -24.80647 -24.80411 -24.80321 -19.32276
 Alpha  occ. eigenvalues --  -19.32050 -19.21863 -19.21861 -19.21799 -14.48686
 Alpha  occ. eigenvalues --  -14.48503 -14.48496 -10.59047 -10.58864 -10.52415
 Alpha  occ. eigenvalues --  -10.52395 -10.46065 -10.46064 -10.43038 -10.43035
 Alpha  occ. eigenvalues --  -10.43021 -10.30845 -10.30831 -10.30254 -10.28728
 Alpha  occ. eigenvalues --  -10.28668 -10.27581 -10.27530  -1.42643  -1.42526
 Alpha  occ. eigenvalues --   -1.38732  -1.38708  -1.35684  -1.35599  -1.33100
 Alpha  occ. eigenvalues --   -1.32980  -1.32352  -1.32259  -1.31645  -1.31526
 Alpha  occ. eigenvalues --   -1.29613  -1.29487  -1.20412  -1.20314  -1.19773
 Alpha  occ. eigenvalues --   -1.15070  -1.15068  -1.06632  -1.04020  -1.04002
 Alpha  occ. eigenvalues --   -0.91667  -0.91390  -0.88224  -0.87452  -0.83803
 Alpha  occ. eigenvalues --   -0.82220  -0.81633  -0.79153  -0.78794  -0.75994
 Alpha  occ. eigenvalues --   -0.75566  -0.73511  -0.73312  -0.71536  -0.71281
 Alpha  occ. eigenvalues --   -0.71133  -0.70436  -0.70279  -0.69881  -0.69738
 Alpha  occ. eigenvalues --   -0.69324  -0.68758  -0.67172  -0.66663  -0.66442
 Alpha  occ. eigenvalues --   -0.66359  -0.63612  -0.63359  -0.61858  -0.60922
 Alpha  occ. eigenvalues --   -0.60663  -0.60409  -0.60002  -0.59205  -0.57045
 Alpha  occ. eigenvalues --   -0.56960  -0.56477  -0.56070  -0.55758  -0.55610
 Alpha  occ. eigenvalues --   -0.55130  -0.54823  -0.54276  -0.54197  -0.53901
 Alpha  occ. eigenvalues --   -0.53812  -0.53786  -0.53354  -0.52914  -0.52425
 Alpha  occ. eigenvalues --   -0.52290  -0.51882  -0.51720  -0.51570  -0.51385
 Alpha  occ. eigenvalues --   -0.51221  -0.50942  -0.50611  -0.50423  -0.50275
 Alpha  occ. eigenvalues --   -0.49944  -0.49636  -0.49415  -0.49283  -0.49140
 Alpha  occ. eigenvalues --   -0.48945  -0.48738  -0.48265  -0.48059  -0.47514
 Alpha  occ. eigenvalues --   -0.47319  -0.46992  -0.46779  -0.45649  -0.45533
 Alpha  occ. eigenvalues --   -0.45021  -0.44986  -0.44034  -0.43688  -0.42145
 Alpha  occ. eigenvalues --   -0.41843  -0.40593  -0.40383  -0.38091  -0.37971
 Alpha  occ. eigenvalues --   -0.35623  -0.34197  -0.34190  -0.34056
 Alpha virt. eigenvalues --    0.03622   0.03692   0.11508   0.11721   0.12068
 Alpha virt. eigenvalues --    0.12333   0.14049   0.14812   0.15514   0.16504
 Alpha virt. eigenvalues --    0.16996   0.17592   0.17894   0.18747   0.19209

 Mulliken charges:
               1
     1  C   -0.180162
     2  N   -0.554323
     3  C    0.812043
     4  O   -0.537171
     5  N   -0.566917
     6  C   -0.053981
     7  C   -0.204569
     8  C   -0.267051
     9  C    0.547731
    10  F   -0.281528
    11  F   -0.278756
    12  C    0.762604
    13  F   -0.266540
    14  F   -0.267006
    15  O   -0.514806
    16  C    0.989860
    17  F   -0.244974
    18  F   -0.245125
    19  F   -0.248797
    20  C    0.814334
    21  O   -0.533591
    22  N   -0.566893
    23  C   -0.054143
    24  C   -0.205299
    25  C   -0.265318
    26  C    0.543466
    27  F   -0.281791
    28  F   -0.279312
    29  C    0.774565
    30  F   -0.268072
    31  F   -0.265144
    32  O   -0.516820
    33  C    0.987151
    34  F   -0.247920
    35  F   -0.246782
    36  F   -0.247973
    37  C    0.812262
    38  O   -0.537358
    39  H    0.157032
    40  H    0.157004
    41  H    0.149152
    42  H    0.152451
    43  H    0.145431
    44  H    0.129085
    45  H    0.135988
    46  H    0.150437
    47  H    0.147021
    48  H    0.152780
    49  H    0.145590
    50  H    0.136227
    51  H    0.129661
    52  H    0.148422
    53  H    0.147826
 Sum of Mulliken charges =   0.00000

 Dipole moment (field-independent basis, Debye):
    X=             -0.3608    Y=              2.6976    Z=              2.9810  Tot=              4.0366
 Quadrupole moment (field-independent basis, Debye-Ang):
   XX=           -225.8781   YY=           -211.6449   ZZ=           -206.6950
   XY=              0.5687   XZ=              0.2255   YZ=             -6.1423

 Normal termination of Gaussian 09 at Sun Feb  2 08:09:40 2025.
