 Gaussian 09, Revision D.01,
 Gaussian 09:  ES64L-G09RevD.01 24-Apr-2013

 ----------------------------------------------------------------------
 #p CAM-B3LYP/6-31G(d,p) opt SCRF=(PCM,Solvent=Generic,Read) NoSymm out
 =wfn
 ----------------------------------------------------------------------

 --------------
 Title AEP2_neu
 --------------
 Symbolic Z-matrix:
 Charge =  0 Multiplicity = 1

 SCF Done:  E(RCAM-B3LYP) =  -1989.35468363     A.U. after   13 cycles
 SCF Done:  E(RCAM-B3LYP) =  -1989.37396148     A.U. after   12 cycles
 SCF Done:  E(RCAM-B3LYP) =  -1989.38146025     A.U. after   12 cycles
 SCF Done:  E(RCAM-B3LYP) =  -1989.38382701     A.U. after   12 cycles
 SCF Done:  E(RCAM-B3LYP) =  -1989.38423329     A.U. after   12 cycles
 SCF Done:  E(RCAM-B3LYP) =  -1989.38457175     A.U. after   12 cycles
 SCF Done:  E(RCAM-B3LYP) =  -1989.38450303     A.U. after   12 cycles
 SCF Done:  E(RCAM-B3LYP) =  -1989.38489438     A.U. after   11 cycles
 SCF Done:  E(RCAM-B3LYP) =  -1989.38492200     A.U. after   10 cycles
 SCF Done:  E(RCAM-B3LYP) =  -1989.38494114     A.U. after   11 cycles
 SCF Done:  E(RCAM-B3LYP) =  -1989.38468876     A.U. after   11 cycles
 SCF Done:  E(RCAM-B3LYP) =  -1989.38498137     A.U. after    2 cycles
 SCF Done:  E(RCAM-B3LYP) =  -1989.38448229     A.U. after   13 cycles
 SCF Done:  E(RCAM-B3LYP) =  -1989.38498275     A.U. after   12 cycles
 SCF Done:  E(RCAM-B3LYP) =  -1989.38491936     A.U. after   11 cycles
 SCF Done:  E(RCAM-B3LYP) =  -1989.38498532     A.U. after   11 cycles
 SCF Done:  E(RCAM-B3LYP) =  -1989.38498661     A.U. after    9 cycles
 SCF Done:  E(RCAM-B3LYP) =  -1989.38498693     A.U. after    8 cycles
 SCF Done:  E(RCAM-B3LYP) =  -1989.38498699     A.U. after    6 cycles
 SCF Done:  E(RCAM-B3LYP) =  -1989.38498700     A.U. after    6 cycles
 Optimization completed.
    -- Stationary point found.

                          Input orientation:
 ---------------------------------------------------------------------
 Center     Atomic      Atomic             Coordinates (Angstroms)
 Number     Number       Type             X           Y           Z
 ---------------------------------------------------------------------
      1          9           0        6.339135   -1.844645   -1.015236
      2          6           0        5.597825   -0.814240   -0.614529
      3          9           0        6.370089    0.280165   -0.609064
      4          6           0        4.983668   -1.047920    0.782496
      5          9           0        4.810538   -2.362448    0.976479
      6          9           0        5.755019   -0.544311    1.750363
      7          6           0        3.643919   -0.304868    0.664980
      8          9           0        3.944942    1.023680    0.844732
      9          6           0        2.556694   -0.631487    1.690107
     10          9           0        2.308273   -1.948390    1.705908
     11          6           0        2.972173   -0.195735    3.108378
     12          8           0        2.435268    0.966212    3.449920
     13          8           0        3.710098   -0.869229    3.772810
     14          9           0        1.435315    0.028724    1.305629
     15          6           0        3.302013   -0.458888   -0.848241
     16          9           0        2.770517    0.709391   -1.292946
     17          6           0        2.373252   -1.599337   -1.331284
     18          9           0        2.502099   -1.604113   -2.686348
     19          6           0        0.858065   -1.512471   -1.011535
     20          7           0        0.221864   -0.513424   -1.648047
     21          6           0       -1.201693   -0.279589   -1.462595
     22          6           0       -1.466398    0.721317   -0.322768
     23          7           0       -2.856526    1.004614   -0.030709
     24          6           0       -3.576784    1.688566   -1.095828
     25          6           0       -4.909096    2.225554   -0.579628
     26          6           0       -5.744494    1.099935    0.030097
     27          6           0       -4.935319    0.348822    1.087103
     28          6           0       -3.604001   -0.123774    0.510258
     29          8           0        0.340387   -2.342845   -0.292354
     30          9           0        2.865468   -2.751225   -0.848660
     31          8           0        4.538762   -0.651318   -1.481659
     32          1           0        2.747721    1.188550    4.343515
     33          1           0        0.764836    0.140152   -2.191543
     34          1           0       -1.658466   -1.244562   -1.239393
     35          1           0       -1.613285    0.080681   -2.408173
     36          1           0       -0.964497    1.666313   -0.563667
     37          1           0       -0.991840    0.332310    0.583608
     38          1           0       -2.952765    2.511658   -1.460269
     39          1           0       -3.773575    1.024947   -1.959854
     40          1           0       -5.450791    2.712163   -1.397285
     41          1           0       -4.707273    2.988079    0.180792
     42          1           0       -6.039350    0.400060   -0.762949
     43          1           0       -6.669599    1.495980    0.460495
     44          1           0       -5.496851   -0.510763    1.466919
     45          1           0       -4.733799    1.011459    1.936076
     46          1           0       -3.804147   -0.896577   -0.256105
     47          1           0       -2.997389   -0.597173    1.288653
 ---------------------------------------------------------------------

 Alpha  occ. eigenvalues --  -24.82763 -24.82757 -24.82726 -24.82725 -24.82578
 Alpha  occ. eigenvalues --  -24.82381 -24.82331 -24.82042 -24.81323 -24.81089
 Alpha  occ. eigenvalues --  -19.31315 -19.30914 -19.25450 -19.21010 -14.45295
 Alpha  occ. eigenvalues --  -14.39345 -10.51908 -10.48340 -10.48112 -10.46913
 Alpha  occ. eigenvalues --  -10.46412 -10.44007 -10.42360 -10.38892 -10.29844
 Alpha  occ. eigenvalues --  -10.28346 -10.27816 -10.27533 -10.24989 -10.24954
 Alpha  occ. eigenvalues --  -10.24812  -1.40502  -1.38606  -1.37846  -1.37378
 Alpha  occ. eigenvalues --   -1.35928  -1.34006  -1.32762  -1.32032  -1.31611
 Alpha  occ. eigenvalues --   -1.30648  -1.23193  -1.21583  -1.14212  -1.14155
 Alpha  occ. eigenvalues --   -1.02918  -1.00783  -0.94920  -0.89994  -0.88189
 Alpha  occ. eigenvalues --   -0.87078  -0.84151  -0.83196  -0.80652  -0.78627
 Alpha  occ. eigenvalues --   -0.75804  -0.74450  -0.73423  -0.71136  -0.70212
 Alpha  occ. eigenvalues --   -0.69963  -0.69649  -0.68557  -0.68246  -0.67505
 Alpha  occ. eigenvalues --   -0.66916  -0.66557  -0.66123  -0.65552  -0.65206
 Alpha  occ. eigenvalues --   -0.64505  -0.63038  -0.62473  -0.61935  -0.58894
 Alpha  occ. eigenvalues --   -0.57192  -0.57071  -0.56525  -0.55544  -0.55191
 Alpha  occ. eigenvalues --   -0.55036  -0.54517  -0.54429  -0.54234  -0.53941
 Alpha  occ. eigenvalues --   -0.53653  -0.53157  -0.52908  -0.52492  -0.52426
 Alpha  occ. eigenvalues --   -0.52086  -0.51705  -0.51658  -0.51298  -0.50719
 Alpha  occ. eigenvalues --   -0.50388  -0.50003  -0.49956  -0.49834  -0.49039
 Alpha  occ. eigenvalues --   -0.48922  -0.48188  -0.47996  -0.46337  -0.46245
 Alpha  occ. eigenvalues --   -0.45582  -0.44846  -0.44581  -0.44346  -0.42821
 Alpha  occ. eigenvalues --   -0.41986  -0.41581  -0.41427  -0.39873  -0.38560
 Alpha  occ. eigenvalues --   -0.37947  -0.37241  -0.37116  -0.34387  -0.33636
 Alpha  occ. eigenvalues --   -0.26490
 Alpha virt. eigenvalues --    0.00935   0.04015   0.05942   0.10287   0.11748
 Alpha virt. eigenvalues --    0.12604   0.12819   0.14158   0.14398   0.15839
 Alpha virt. eigenvalues --    0.16452   0.17058   0.17532   0.19011   0.19607

 Mulliken charges:
               1
     1  F   -0.240100
     2  C    0.749930
     3  F   -0.244574
     4  C    0.537139
     5  F   -0.246364
     6  F   -0.253622
     7  C    0.145475
     8  F   -0.301251
     9  C    0.596750
    10  F   -0.248680
    11  C    0.534292
    12  O   -0.460273
    13  O   -0.430128
    14  F   -0.270858
    15  C    0.514093
    16  F   -0.274892
    17  C    0.532050
    18  F   -0.278992
    19  C    0.552894
    20  N   -0.535376
    21  C   -0.070083
    22  C   -0.039982
    23  N   -0.426270
    24  C   -0.032274
    25  C   -0.180902
    26  C   -0.189367
    27  C   -0.181348
    28  C   -0.034133
    29  O   -0.514028
    30  F   -0.262492
    31  O   -0.497426
    32  H    0.359605
    33  H    0.284421
    34  H    0.148511
    35  H    0.120774
    36  H    0.097628
    37  H    0.114794
    38  H    0.095382
    39  H    0.072172
    40  H    0.092072
    41  H    0.102098
    42  H    0.091293
    43  H    0.096023
    44  H    0.093992
    45  H    0.101343
    46  H    0.075043
    47  H    0.105644
 Sum of Mulliken charges =   0.00000

 Dipole moment (field-independent basis, Debye):
    X=             -2.5446    Y=              4.3684    Z=              0.0718  Tot=              5.0560
 Quadrupole moment (field-independent basis, Debye-Ang):
   XX=           -178.4566   YY=           -182.6879   ZZ=           -159.6832
   XY=              8.5529   XZ=              5.8890   YZ=              5.2703

 Normal termination of Gaussian 09 at Thu Feb  6 08:50:46 2025.
