 Gaussian 09, Revision D.01,
 Gaussian 09:  ES64L-G09RevD.01 24-Apr-2013

 ----------------------------------------------------------------------
 #p CAM-B3LYP/6-31G(d,p) SCRF=(PCM,Solvent=Generic,Read) NoSymm out=wfn
 ----------------------------------------------------------------------

 --------------------
 Title A1576805751_p1
 --------------------
 Symbolic Z-matrix:
 Charge =  1 Multiplicity = 2

                          Input orientation:
 ---------------------------------------------------------------------
 Center     Atomic      Atomic             Coordinates (Angstroms)
 Number     Number       Type             X           Y           Z
 ---------------------------------------------------------------------
      1          6           0       -3.788094    2.727890    0.509940
      2          6           0       -2.505453    2.528289    0.184409
      3          7           0       -1.860027    1.342914   -0.210355
      4          6           0       -2.545179    0.133239   -0.352833
      5          8           0       -3.762364   -0.002470   -0.208984
      6          7           0       -1.768336   -0.972884   -0.663373
      7          6           0       -2.419029   -2.284741   -0.690834
      8          6           0       -2.477818   -2.915506    0.693970
      9          6           0       -0.405072   -0.928519   -0.825638
     10          8           0        0.272741   -1.953977   -0.868237
     11          7           0        0.159406    0.312019   -0.897096
     12          6           0        1.585396    0.413303   -1.166896
     13          9           0        1.983495   -0.611999   -1.981977
     14          9           0        1.759848    1.509189   -1.981265
     15          6           0        2.593353    0.531909    0.012585
     16          9           0        2.278471    1.611576    0.785370
     17          8           0        3.882219    0.819159   -0.561614
     18          6           0        4.927054    0.816038    0.372668
     19          9           0        4.569232    1.416307    1.517936
     20          9           0        5.976401    1.474003   -0.154383
     21          9           0        5.295807   -0.453678    0.612278
     22          6           0        2.500797   -0.733397    0.866356
     23          9           0        2.852584   -1.842182    0.187090
     24          9           0        1.251112   -0.909484    1.358224
     25          9           0        3.309604   -0.665884    1.951501
     26          6           0       -0.486077    1.439033   -0.454282
     27          8           0        0.143727    2.482087   -0.262523
     28          1           0       -4.550797    1.959170    0.515724
     29          1           0       -4.122063    3.721628    0.796605
     30          1           0       -1.861100    3.407717    0.234304
     31          1           0       -3.434220   -2.185722   -1.091413
     32          1           0       -1.874707   -2.949879   -1.371223
     33          1           0       -2.963500   -3.894861    0.644458
     34          1           0       -1.473924   -3.052019    1.108999
     35          1           0       -3.043489   -2.288265    1.390510
 ---------------------------------------------------------------------

 SCF Done:  E(UCAM-B3LYP) =  -1786.87692561     A.U. after   21 cycles

 Alpha  occ. eigenvalues --  -24.86496 -24.85594 -24.85374 -24.85334 -24.85140
 Alpha  occ. eigenvalues --  -24.84878 -24.84868 -24.84818 -24.84612 -19.34802
 Alpha  occ. eigenvalues --  -19.31667 -19.30616 -19.27905 -14.63891 -14.58060
 Alpha  occ. eigenvalues --  -14.55423 -10.61056 -10.57805 -10.56605 -10.53170
 Alpha  occ. eigenvalues --  -10.51936 -10.51611 -10.49691 -10.46983 -10.42304
 Alpha  occ. eigenvalues --  -10.34754 -10.28564  -1.44916  -1.43865  -1.41370
 Alpha  occ. eigenvalues --   -1.38075  -1.35530  -1.34933  -1.34739  -1.34122
 Alpha  occ. eigenvalues --   -1.33764  -1.29309  -1.23908  -1.22852  -1.22233
 Alpha  occ. eigenvalues --   -1.17039  -1.14100  -1.11390  -1.00909  -0.96176
 Alpha  occ. eigenvalues --   -0.91112  -0.89007  -0.87351  -0.85050  -0.83864
 Alpha  occ. eigenvalues --   -0.80395  -0.79958  -0.78079  -0.76028  -0.74879
 Alpha  occ. eigenvalues --   -0.74038  -0.72655  -0.71557  -0.71178  -0.70633
 Alpha  occ. eigenvalues --   -0.69920  -0.69735  -0.68987  -0.67967  -0.66909
 Alpha  occ. eigenvalues --   -0.64274  -0.62667  -0.62364  -0.61957  -0.61102
 Alpha  occ. eigenvalues --   -0.59515  -0.59326  -0.59112  -0.58930  -0.58463
 Alpha  occ. eigenvalues --   -0.57960  -0.57614  -0.57149  -0.56786  -0.56700
 Alpha  occ. eigenvalues --   -0.56130  -0.55591  -0.54838  -0.54418  -0.54115
 Alpha  occ. eigenvalues --   -0.53869  -0.52940  -0.52851  -0.52190  -0.52076
 Alpha  occ. eigenvalues --   -0.51623  -0.50897  -0.50871  -0.50263  -0.48284
 Alpha  occ. eigenvalues --   -0.47943  -0.46605  -0.46000  -0.45561  -0.45093
 Alpha  occ. eigenvalues --   -0.44652  -0.43345  -0.41126  -0.40415
 Alpha virt. eigenvalues --   -0.09128  -0.05399  -0.02502   0.03302   0.04134
 Alpha virt. eigenvalues --    0.06471   0.07780   0.08970   0.11451   0.12440
 Alpha virt. eigenvalues --    0.13324   0.13894   0.15073   0.16202   0.17135

  Beta  occ. eigenvalues --  -24.86495 -24.85594 -24.85374 -24.85332 -24.85140
  Beta  occ. eigenvalues --  -24.84878 -24.84867 -24.84818 -24.84612 -19.34802
  Beta  occ. eigenvalues --  -19.31476 -19.30552 -19.27853 -14.63335 -14.58066
  Beta  occ. eigenvalues --  -14.55366 -10.61056 -10.57805 -10.56605 -10.53248
  Beta  occ. eigenvalues --  -10.51985 -10.51611 -10.49707 -10.46744 -10.41507
  Beta  occ. eigenvalues --  -10.34755 -10.28557  -1.44915  -1.43865  -1.41369
  Beta  occ. eigenvalues --   -1.38073  -1.35530  -1.34932  -1.34739  -1.34121
  Beta  occ. eigenvalues --   -1.33762  -1.28910  -1.23726  -1.22667  -1.22232
  Beta  occ. eigenvalues --   -1.16299  -1.13954  -1.11243  -0.98697  -0.96049
  Beta  occ. eigenvalues --   -0.90944  -0.88873  -0.86768  -0.85010  -0.83772
  Beta  occ. eigenvalues --   -0.80210  -0.79852  -0.77919  -0.75830  -0.74857
  Beta  occ. eigenvalues --   -0.74023  -0.72630  -0.71428  -0.71033  -0.70573
  Beta  occ. eigenvalues --   -0.69631  -0.69511  -0.68688  -0.67259  -0.66761
  Beta  occ. eigenvalues --   -0.63618  -0.62402  -0.62323  -0.61725  -0.60341
  Beta  occ. eigenvalues --   -0.59404  -0.59201  -0.58950  -0.58822  -0.58410
  Beta  occ. eigenvalues --   -0.57923  -0.57462  -0.57049  -0.56681  -0.56442
  Beta  occ. eigenvalues --   -0.55896  -0.55556  -0.54822  -0.54371  -0.54103
  Beta  occ. eigenvalues --   -0.53848  -0.52861  -0.52815  -0.52097  -0.51887
  Beta  occ. eigenvalues --   -0.51105  -0.50881  -0.50086  -0.48673  -0.48223
  Beta  occ. eigenvalues --   -0.47901  -0.46567  -0.45598  -0.45241  -0.44575
  Beta  occ. eigenvalues --   -0.42916  -0.40996  -0.40125
  Beta virt. eigenvalues --   -0.24801  -0.05783  -0.04999  -0.00521   0.03319
  Beta virt. eigenvalues --    0.04368   0.07324   0.08062   0.09302   0.11608
  Beta virt. eigenvalues --    0.12556   0.13488   0.14322   0.15301   0.16322

 Mulliken charges and spin densities:
               1          2
     1  C   -0.105039   0.565006
     2  C    0.241930   0.184446
     3  N   -0.574718   0.231764
     4  C    0.870154  -0.028386
     5  O   -0.464414   0.028440
     6  N   -0.566439   0.025184
     7  C   -0.077329  -0.001069
     8  C   -0.331740   0.003005
     9  C    0.855735  -0.009127
    10  O   -0.469300   0.020295
    11  N   -0.642999  -0.000648
    12  C    0.755011  -0.000471
    13  F   -0.239860   0.000065
    14  F   -0.261665   0.000237
    15  C    0.437307   0.000095
    16  F   -0.253763   0.000185
    17  O   -0.509230  -0.000001
    18  C    0.999969   0.000003
    19  F   -0.242465   0.000002
    20  F   -0.236085  -0.000001
    21  F   -0.243331   0.000000
    22  C    0.820518  -0.000022
    23  F   -0.230207   0.000017
    24  F   -0.254557   0.000031
    25  F   -0.250224   0.000001
    26  C    0.885329  -0.041926
    27  O   -0.433774   0.076615
    28  H    0.249419  -0.021985
    29  H    0.242239  -0.025172
    30  H    0.266322  -0.007930
    31  H    0.172597   0.000611
    32  H    0.176263   0.000498
    33  H    0.147178   0.000359
    34  H    0.138817  -0.000039
    35  H    0.128350  -0.000082
 Sum of Mulliken charges =   1.00000   1.00000

 Dipole moment (field-independent basis, Debye):
    X=            -14.3084    Y=              7.7645    Z=              0.8346  Tot=             16.3007
 Quadrupole moment (field-independent basis, Debye-Ang):
   XX=           -103.4015   YY=           -113.6805   ZZ=           -140.9752
   XY=            -26.2403   XZ=             -1.5308   YZ=              4.7967

 Normal termination of Gaussian 09 at Sun Mar  3 17:35:04 2024.
