 Gaussian 09, Revision D.01,
 Gaussian 09:  ES64L-G09RevD.01 24-Apr-2013

 ----------------------------------------------------------------------
 #p CAM-B3LYP/6-31G(d,p) SCRF=(PCM,Solvent=Generic,Read) NoSymm out=wfn
 ----------------------------------------------------------------------

 -------------------
 Title A1576805751_0
 -------------------
 Symbolic Z-matrix:
 Charge =  0 Multiplicity = 1

                          Input orientation:
 ---------------------------------------------------------------------
 Center     Atomic      Atomic             Coordinates (Angstroms)
 Number     Number       Type             X           Y           Z
 ---------------------------------------------------------------------
      1          6           0       -3.788094    2.727890    0.509940
      2          6           0       -2.505453    2.528289    0.184409
      3          7           0       -1.860027    1.342914   -0.210355
      4          6           0       -2.545179    0.133239   -0.352833
      5          8           0       -3.762364   -0.002470   -0.208984
      6          7           0       -1.768336   -0.972884   -0.663373
      7          6           0       -2.419029   -2.284741   -0.690834
      8          6           0       -2.477818   -2.915506    0.693970
      9          6           0       -0.405072   -0.928519   -0.825638
     10          8           0        0.272741   -1.953977   -0.868237
     11          7           0        0.159406    0.312019   -0.897096
     12          6           0        1.585396    0.413303   -1.166896
     13          9           0        1.983495   -0.611999   -1.981977
     14          9           0        1.759848    1.509189   -1.981265
     15          6           0        2.593353    0.531909    0.012585
     16          9           0        2.278471    1.611576    0.785370
     17          8           0        3.882219    0.819159   -0.561614
     18          6           0        4.927054    0.816038    0.372668
     19          9           0        4.569232    1.416307    1.517936
     20          9           0        5.976401    1.474003   -0.154383
     21          9           0        5.295807   -0.453678    0.612278
     22          6           0        2.500797   -0.733397    0.866356
     23          9           0        2.852584   -1.842182    0.187090
     24          9           0        1.251112   -0.909484    1.358224
     25          9           0        3.309604   -0.665884    1.951501
     26          6           0       -0.486077    1.439033   -0.454282
     27          8           0        0.143727    2.482087   -0.262523
     28          1           0       -4.550797    1.959170    0.515724
     29          1           0       -4.122063    3.721628    0.796605
     30          1           0       -1.861100    3.407717    0.234304
     31          1           0       -3.434220   -2.185722   -1.091413
     32          1           0       -1.874707   -2.949879   -1.371223
     33          1           0       -2.963500   -3.894861    0.644458
     34          1           0       -1.473924   -3.052019    1.108999
     35          1           0       -3.043489   -2.288265    1.390510
 ---------------------------------------------------------------------

 SCF Done:  E(RCAM-B3LYP) =  -1787.15813488     A.U. after   13 cycles

 Alpha  occ. eigenvalues --  -24.83997 -24.83511 -24.83339 -24.83253 -24.83090
 Alpha  occ. eigenvalues --  -24.82877 -24.82634 -24.82527 -24.81649 -19.32721
 Alpha  occ. eigenvalues --  -19.23954 -19.23524 -19.23062 -14.52772 -14.51661
 Alpha  occ. eigenvalues --  -14.49732 -10.59377 -10.55535 -10.53154 -10.48949
 Alpha  occ. eigenvalues --  -10.45965 -10.44965 -10.44881 -10.31913 -10.31279
 Alpha  occ. eigenvalues --  -10.26676 -10.25798  -1.43094  -1.41857  -1.38259
 Alpha  occ. eigenvalues --   -1.35458  -1.33324  -1.33297  -1.32918  -1.32254
 Alpha  occ. eigenvalues --   -1.30679  -1.22134  -1.20155  -1.17137  -1.16862
 Alpha  occ. eigenvalues --   -1.09044  -1.07351  -1.05513  -0.93404  -0.87943
 Alpha  occ. eigenvalues --   -0.85862  -0.83802  -0.82357  -0.79289  -0.78354
 Alpha  occ. eigenvalues --   -0.76783  -0.74267  -0.73052  -0.72420  -0.71306
 Alpha  occ. eigenvalues --   -0.70460  -0.69674  -0.69439  -0.68655  -0.67080
 Alpha  occ. eigenvalues --   -0.66592  -0.65591  -0.63787  -0.61793  -0.60122
 Alpha  occ. eigenvalues --   -0.59290  -0.57502  -0.57120  -0.56900  -0.56331
 Alpha  occ. eigenvalues --   -0.56015  -0.55757  -0.55297  -0.54504  -0.54263
 Alpha  occ. eigenvalues --   -0.54042  -0.53734  -0.53284  -0.52972  -0.52475
 Alpha  occ. eigenvalues --   -0.52272  -0.51895  -0.51502  -0.51193  -0.50698
 Alpha  occ. eigenvalues --   -0.50467  -0.50321  -0.50001  -0.49245  -0.48850
 Alpha  occ. eigenvalues --   -0.48378  -0.46424  -0.45925  -0.45753  -0.44904
 Alpha  occ. eigenvalues --   -0.44299  -0.42693  -0.41326  -0.39547  -0.38376
 Alpha  occ. eigenvalues --   -0.37890  -0.35960  -0.35387  -0.31450
 Alpha virt. eigenvalues --    0.00676   0.01080   0.05972   0.06557   0.07846
 Alpha virt. eigenvalues --    0.13332   0.14213   0.15111   0.16409   0.16952
 Alpha virt. eigenvalues --    0.18115   0.18960   0.19988   0.20175   0.21364

 Mulliken charges:
               1
     1  C   -0.267869
     2  C    0.110543
     3  N   -0.607640
     4  C    0.836438
     5  O   -0.507643
     6  N   -0.568720
     7  C   -0.060998
     8  C   -0.328572
     9  C    0.832539
    10  O   -0.512756
    11  N   -0.638798
    12  C    0.751870
    13  F   -0.250634
    14  F   -0.269310
    15  C    0.434245
    16  F   -0.253415
    17  O   -0.513873
    18  C    0.996455
    19  F   -0.243341
    20  F   -0.239618
    21  F   -0.246118
    22  C    0.818135
    23  F   -0.234569
    24  F   -0.251462
    25  F   -0.255646
    26  C    0.841916
    27  O   -0.498945
    28  H    0.145740
    29  H    0.124384
    30  H    0.166362
    31  H    0.155418
    32  H    0.153330
    33  H    0.127701
    34  H    0.128591
    35  H    0.126259
 Sum of Mulliken charges =   0.00000

 Dipole moment (field-independent basis, Debye):
    X=             -2.7071    Y=             -0.7523    Z=              0.4057  Tot=              2.8389
 Quadrupole moment (field-independent basis, Debye-Ang):
   XX=           -151.2156   YY=           -146.7744   ZZ=           -146.4796
   XY=              0.6214   XZ=              2.4940   YZ=              1.2076

 Normal termination of Gaussian 09 at Sun Mar  3 17:34:37 2024.
