 Gaussian 09, Revision D.01,
 Gaussian 09:  ES64L-G09RevD.01 24-Apr-2013

 ----------------------------------------------------------------------
 #p CAM-B3LYP/6-31G(d,p) SCRF=(PCM,Solvent=Generic,Read) NoSymm out=wfn
 ----------------------------------------------------------------------

 ------------------
 Title A156206682_0
 ------------------
 Symbolic Z-matrix:
 Charge =  0 Multiplicity = 1

                          Input orientation:
 ---------------------------------------------------------------------
 Center     Atomic      Atomic             Coordinates (Angstroms)
 Number     Number       Type             X           Y           Z
 ---------------------------------------------------------------------
      1          6           0       -2.555336    0.670239    0.451942
      2          6           0       -1.258677    0.311979    0.440868
      3          7           0       -0.276913    1.136015   -0.110274
      4          6           0       -0.552916    2.361889   -0.898145
      5          9           0        0.278431    2.376336   -1.977765
      6          9           0       -1.787859    2.278129   -1.475947
      7          6           0       -0.457194    3.682909   -0.089662
      8          9           0        0.767890    3.795833    0.494100
      9          8           0       -1.399697    3.609986    0.994004
     10          6           0       -1.555166    4.831582    1.669364
     11          9           0       -2.140089    4.583758    2.856313
     12          9           0       -2.363596    5.628080    0.951891
     13          9           0       -0.374820    5.430436    1.880958
     14          6           0       -0.664636    4.808314   -1.111529
     15          9           0       -0.508908    6.028406   -0.543386
     16          9           0       -1.914048    4.781015   -1.630950
     17          9           0        0.204192    4.760429   -2.142682
     18          6           0        1.074217    0.903333    0.106082
     19          8           0        1.935949    1.660775   -0.334255
     20          7           0        1.404437   -0.222047    0.814021
     21          6           0        2.819614   -0.543200    0.955103
     22          9           0        2.975895   -1.302439    2.078738
     23          9           0        3.502048    0.600018    1.258521
     24          6           0        3.476656   -1.243340   -0.265592
     25          9           0        2.906168   -2.470547   -0.445101
     26          8           0        3.177812   -0.513860   -1.460799
     27          6           0        3.924185   -0.934205   -2.570937
     28          9           0        5.172573   -0.449181   -2.479152
     29          9           0        3.951057   -2.272985   -2.658040
     30          9           0        3.349690   -0.440011   -3.683655
     31          6           0        4.956171   -1.409740    0.109566
     32          9           0        5.133614   -2.040799    1.290647
     33          9           0        5.621426   -2.147571   -0.812813
     34          9           0        5.595337   -0.220943    0.186738
     35          6           0        0.512397   -1.244882    0.990042
     36          8           0        0.884348   -2.402530    1.156138
     37          7           0       -0.831303   -0.910193    0.966848
     38          6           0       -1.750580   -1.981899    1.406370
     39          9           0       -2.754196   -1.400504    2.145876
     40          9           0       -1.158178   -2.788534    2.334763
     41          6           0       -2.421065   -2.841837    0.311660
     42          9           0       -3.056669   -2.006347   -0.568355
     43          8           0       -3.407254   -3.693902    0.924259
     44          6           0       -4.601578   -3.728292    0.190579
     45          9           0       -5.379789   -4.706992    0.688853
     46          9           0       -5.247642   -2.555742    0.322804
     47          9           0       -4.365785   -3.982846   -1.106552
     48          6           0       -1.380513   -3.661275   -0.438058
     49          9           0       -0.492568   -2.872283   -1.088191
     50          9           0       -1.964384   -4.434681   -1.387864
     51          9           0       -0.698534   -4.499554    0.367537
     52          1           0       -3.365568    0.066465    0.842800
     53          1           0       -2.938646    1.617231    0.092319
 ---------------------------------------------------------------------

 SCF Done:  E(RCAM-B3LYP) =  -3845.85886243     A.U. after   13 cycles

 Alpha  occ. eigenvalues --  -24.84820 -24.84134 -24.84110 -24.83858 -24.83811
 Alpha  occ. eigenvalues --  -24.83713 -24.83629 -24.83624 -24.83585 -24.83567
 Alpha  occ. eigenvalues --  -24.83496 -24.83445 -24.83395 -24.83300 -24.83300
 Alpha  occ. eigenvalues --  -24.83282 -24.83275 -24.83242 -24.83090 -24.83041
 Alpha  occ. eigenvalues --  -24.83037 -24.82976 -24.82894 -24.82816 -24.82807
 Alpha  occ. eigenvalues --  -24.82689 -24.82661 -19.33588 -19.33046 -19.33031
 Alpha  occ. eigenvalues --  -19.23976 -19.23615 -14.52777 -14.52727 -14.52461
 Alpha  occ. eigenvalues --  -10.59988 -10.59722 -10.59582 -10.55713 -10.55432
 Alpha  occ. eigenvalues --  -10.55356 -10.54024 -10.53918 -10.53438 -10.49539
 Alpha  occ. eigenvalues --  -10.49438 -10.48998 -10.46283 -10.46158 -10.39739
 Alpha  occ. eigenvalues --  -10.27202  -1.43602  -1.43215  -1.43202  -1.42083
 Alpha  occ. eigenvalues --   -1.41865  -1.41697  -1.39706  -1.39315  -1.39011
 Alpha  occ. eigenvalues --   -1.37090  -1.36192  -1.35554  -1.33959  -1.33630
 Alpha  occ. eigenvalues --   -1.33580  -1.33525  -1.33262  -1.33183  -1.33091
 Alpha  occ. eigenvalues --   -1.32965  -1.32719  -1.32468  -1.32212  -1.32121
 Alpha  occ. eigenvalues --   -1.32087  -1.31766  -1.31513  -1.22468  -1.20970
 Alpha  occ. eigenvalues --   -1.20712  -1.20600  -1.17884  -1.12498  -1.09070
 Alpha  occ. eigenvalues --   -1.07032  -0.94585  -0.93749  -0.93544  -0.89349
 Alpha  occ. eigenvalues --   -0.86526  -0.84172  -0.82821  -0.82238  -0.81853
 Alpha  occ. eigenvalues --   -0.80827  -0.79204  -0.77475  -0.76607  -0.76013
 Alpha  occ. eigenvalues --   -0.74811  -0.74301  -0.73673  -0.73188  -0.72883
 Alpha  occ. eigenvalues --   -0.72674  -0.72137  -0.71741  -0.71046  -0.70866
 Alpha  occ. eigenvalues --   -0.70507  -0.70344  -0.69803  -0.69640  -0.69200
 Alpha  occ. eigenvalues --   -0.69063  -0.68796  -0.68465  -0.68126  -0.67811
 Alpha  occ. eigenvalues --   -0.67244  -0.66884  -0.66597  -0.66477  -0.66289
 Alpha  occ. eigenvalues --   -0.65887  -0.64718  -0.64413  -0.64027  -0.61228
 Alpha  occ. eigenvalues --   -0.60746  -0.60470  -0.59832  -0.58348  -0.57882
 Alpha  occ. eigenvalues --   -0.57714  -0.57486  -0.57457  -0.57148  -0.56911
 Alpha  occ. eigenvalues --   -0.56769  -0.56658  -0.56272  -0.56200  -0.56113
 Alpha  occ. eigenvalues --   -0.55929  -0.55854  -0.55671  -0.55587  -0.55401
 Alpha  occ. eigenvalues --   -0.55169  -0.54887  -0.54854  -0.54575  -0.54464
 Alpha  occ. eigenvalues --   -0.54287  -0.54034  -0.53900  -0.53748  -0.53441
 Alpha  occ. eigenvalues --   -0.53414  -0.53052  -0.52704  -0.52607  -0.52389
 Alpha  occ. eigenvalues --   -0.52342  -0.52215  -0.52166  -0.51869  -0.51758
 Alpha  occ. eigenvalues --   -0.51147  -0.50970  -0.50832  -0.50680  -0.50626
 Alpha  occ. eigenvalues --   -0.50476  -0.50427  -0.50281  -0.50053  -0.50022
 Alpha  occ. eigenvalues --   -0.49858  -0.49811  -0.49680  -0.49504  -0.49256
 Alpha  occ. eigenvalues --   -0.49016  -0.48900  -0.48756  -0.48655  -0.48301
 Alpha  occ. eigenvalues --   -0.46326  -0.45801  -0.45497  -0.44792  -0.44565
 Alpha  occ. eigenvalues --   -0.43573  -0.39780  -0.39192  -0.37928  -0.36793
 Alpha  occ. eigenvalues --   -0.30469
 Alpha virt. eigenvalues --    0.00603   0.02071   0.04816   0.04960   0.05607
 Alpha virt. eigenvalues --    0.06370   0.07646   0.09079   0.11099   0.13041
 Alpha virt. eigenvalues --    0.14241   0.14807   0.16298   0.16552   0.17369

 Mulliken charges:
               1
     1  C   -0.337119
     2  C    0.616302
     3  N   -0.701580
     4  C    0.752942
     5  F   -0.247655
     6  F   -0.256318
     7  C    0.437461
     8  F   -0.249165
     9  O   -0.511955
    10  C    0.996692
    11  F   -0.238970
    12  F   -0.242772
    13  F   -0.238873
    14  C    0.815415
    15  F   -0.257516
    16  F   -0.248410
    17  F   -0.240872
    18  C    0.856429
    19  O   -0.500620
    20  N   -0.658408
    21  C    0.759109
    22  F   -0.258410
    23  F   -0.253389
    24  C    0.438352
    25  F   -0.253266
    26  O   -0.505904
    27  C    0.996770
    28  F   -0.243414
    29  F   -0.243131
    30  F   -0.239701
    31  C    0.812645
    32  F   -0.244066
    33  F   -0.259861
    34  F   -0.245953
    35  C    0.834316
    36  O   -0.493303
    37  N   -0.674376
    38  C    0.744203
    39  F   -0.263496
    40  F   -0.239497
    41  C    0.424249
    42  F   -0.267168
    43  O   -0.523631
    44  C    1.012322
    45  F   -0.239960
    46  F   -0.249442
    47  F   -0.248260
    48  C    0.828588
    49  F   -0.247689
    50  F   -0.251330
    51  F   -0.233207
    52  H    0.140239
    53  H    0.142652
 Sum of Mulliken charges =   0.00000

 Dipole moment (field-independent basis, Debye):
    X=             -3.3989    Y=              1.2895    Z=              0.1121  Tot=              3.6370
 Quadrupole moment (field-independent basis, Debye-Ang):
   XX=           -271.5120   YY=           -277.2763   ZZ=           -268.7311
   XY=             -2.4879   XZ=             -0.6059   YZ=              6.1939

 Normal termination of Gaussian 09 at Sun Mar  3 18:17:32 2024.
