 Gaussian 09, Revision D.01,
 Gaussian 09:  ES64L-G09RevD.01 24-Apr-2013

 ----------------------------------------------------------------------
 #p CAM-B3LYP/6-31G(d,p) SCRF=(PCM,Solvent=Generic,Read) NoSymm out=wfn
 ----------------------------------------------------------------------

 -------------------
 Title A156206682_p1
 -------------------
 Symbolic Z-matrix:
 Charge =  1 Multiplicity = 2

                          Input orientation:
 ---------------------------------------------------------------------
 Center     Atomic      Atomic             Coordinates (Angstroms)
 Number     Number       Type             X           Y           Z
 ---------------------------------------------------------------------
      1          6           0       -2.555336    0.670239    0.451942
      2          6           0       -1.258677    0.311979    0.440868
      3          7           0       -0.276913    1.136015   -0.110274
      4          6           0       -0.552916    2.361889   -0.898145
      5          9           0        0.278431    2.376336   -1.977765
      6          9           0       -1.787859    2.278129   -1.475947
      7          6           0       -0.457194    3.682909   -0.089662
      8          9           0        0.767890    3.795833    0.494100
      9          8           0       -1.399697    3.609986    0.994004
     10          6           0       -1.555166    4.831582    1.669364
     11          9           0       -2.140089    4.583758    2.856313
     12          9           0       -2.363596    5.628080    0.951891
     13          9           0       -0.374820    5.430436    1.880958
     14          6           0       -0.664636    4.808314   -1.111529
     15          9           0       -0.508908    6.028406   -0.543386
     16          9           0       -1.914048    4.781015   -1.630950
     17          9           0        0.204192    4.760429   -2.142682
     18          6           0        1.074217    0.903333    0.106082
     19          8           0        1.935949    1.660775   -0.334255
     20          7           0        1.404437   -0.222047    0.814021
     21          6           0        2.819614   -0.543200    0.955103
     22          9           0        2.975895   -1.302439    2.078738
     23          9           0        3.502048    0.600018    1.258521
     24          6           0        3.476656   -1.243340   -0.265592
     25          9           0        2.906168   -2.470547   -0.445101
     26          8           0        3.177812   -0.513860   -1.460799
     27          6           0        3.924185   -0.934205   -2.570937
     28          9           0        5.172573   -0.449181   -2.479152
     29          9           0        3.951057   -2.272985   -2.658040
     30          9           0        3.349690   -0.440011   -3.683655
     31          6           0        4.956171   -1.409740    0.109566
     32          9           0        5.133614   -2.040799    1.290647
     33          9           0        5.621426   -2.147571   -0.812813
     34          9           0        5.595337   -0.220943    0.186738
     35          6           0        0.512397   -1.244882    0.990042
     36          8           0        0.884348   -2.402530    1.156138
     37          7           0       -0.831303   -0.910193    0.966848
     38          6           0       -1.750580   -1.981899    1.406370
     39          9           0       -2.754196   -1.400504    2.145876
     40          9           0       -1.158178   -2.788534    2.334763
     41          6           0       -2.421065   -2.841837    0.311660
     42          9           0       -3.056669   -2.006347   -0.568355
     43          8           0       -3.407254   -3.693902    0.924259
     44          6           0       -4.601578   -3.728292    0.190579
     45          9           0       -5.379789   -4.706992    0.688853
     46          9           0       -5.247642   -2.555742    0.322804
     47          9           0       -4.365785   -3.982846   -1.106552
     48          6           0       -1.380513   -3.661275   -0.438058
     49          9           0       -0.492568   -2.872283   -1.088191
     50          9           0       -1.964384   -4.434681   -1.387864
     51          9           0       -0.698534   -4.499554    0.367537
     52          1           0       -3.365568    0.066465    0.842800
     53          1           0       -2.938646    1.617231    0.092319
 ---------------------------------------------------------------------

 SCF Done:  E(UCAM-B3LYP) =  -3845.58703490     A.U. after   19 cycles

 Alpha  occ. eigenvalues --  -24.90242 -24.89723 -24.89190 -24.88617 -24.88523
 Alpha  occ. eigenvalues --  -24.87600 -24.87244 -24.86732 -24.86531 -24.86440
 Alpha  occ. eigenvalues --  -24.86436 -24.86416 -24.86309 -24.86266 -24.86257
 Alpha  occ. eigenvalues --  -24.86116 -24.85930 -24.85832 -24.85777 -24.85686
 Alpha  occ. eigenvalues --  -24.85594 -24.85552 -24.85476 -24.85305 -24.85281
 Alpha  occ. eigenvalues --  -24.84974 -24.84622 -19.37530 -19.36543 -19.35761
 Alpha  occ. eigenvalues --  -19.31251 -19.30873 -14.63508 -14.63340 -14.59221
 Alpha  occ. eigenvalues --  -10.62929 -10.62415 -10.61728 -10.60259 -10.60182
 Alpha  occ. eigenvalues --  -10.58963 -10.58818 -10.57567 -10.57464 -10.54612
 Alpha  occ. eigenvalues --  -10.54220 -10.53844 -10.53349 -10.53243 -10.52018
 Alpha  occ. eigenvalues --  -10.43133  -1.46478  -1.46248  -1.45759  -1.45241
 Alpha  occ. eigenvalues --   -1.45111  -1.44716  -1.44385  -1.43867  -1.42439
 Alpha  occ. eigenvalues --   -1.41713  -1.40087  -1.38385  -1.38168  -1.37469
 Alpha  occ. eigenvalues --   -1.36555  -1.36544  -1.36179  -1.36097  -1.35580
 Alpha  occ. eigenvalues --   -1.35568  -1.35467  -1.35425  -1.35170  -1.35128
 Alpha  occ. eigenvalues --   -1.35089  -1.34298  -1.34023  -1.30274  -1.25281
 Alpha  occ. eigenvalues --   -1.24805  -1.24219  -1.23296  -1.21703  -1.16169
 Alpha  occ. eigenvalues --   -1.15633  -1.02939  -0.99340  -0.98412  -0.96440
 Alpha  occ. eigenvalues --   -0.92288  -0.90512  -0.88528  -0.86136  -0.85796
 Alpha  occ. eigenvalues --   -0.84818  -0.84599  -0.83508  -0.82709  -0.80903
 Alpha  occ. eigenvalues --   -0.80115  -0.79218  -0.77793  -0.76774  -0.76610
 Alpha  occ. eigenvalues --   -0.76279  -0.75825  -0.75198  -0.75022  -0.74617
 Alpha  occ. eigenvalues --   -0.74167  -0.73454  -0.72806  -0.72507  -0.72474
 Alpha  occ. eigenvalues --   -0.72202  -0.72048  -0.71876  -0.71546  -0.71247
 Alpha  occ. eigenvalues --   -0.70966  -0.70674  -0.70579  -0.70339  -0.70270
 Alpha  occ. eigenvalues --   -0.69848  -0.69583  -0.69133  -0.68823  -0.67865
 Alpha  occ. eigenvalues --   -0.67740  -0.64742  -0.64220  -0.63797  -0.63121
 Alpha  occ. eigenvalues --   -0.62411  -0.62054  -0.61809  -0.61168  -0.60978
 Alpha  occ. eigenvalues --   -0.60893  -0.60486  -0.60127  -0.59872  -0.59789
 Alpha  occ. eigenvalues --   -0.59550  -0.59385  -0.59193  -0.59175  -0.58844
 Alpha  occ. eigenvalues --   -0.58804  -0.58686  -0.58441  -0.58405  -0.58285
 Alpha  occ. eigenvalues --   -0.58109  -0.57834  -0.57717  -0.57440  -0.57314
 Alpha  occ. eigenvalues --   -0.57218  -0.56789  -0.56483  -0.56241  -0.55957
 Alpha  occ. eigenvalues --   -0.55891  -0.55558  -0.55533  -0.55110  -0.54985
 Alpha  occ. eigenvalues --   -0.54841  -0.54714  -0.54526  -0.54231  -0.54138
 Alpha  occ. eigenvalues --   -0.53942  -0.53804  -0.53675  -0.53667  -0.53359
 Alpha  occ. eigenvalues --   -0.53135  -0.52820  -0.52756  -0.52654  -0.52523
 Alpha  occ. eigenvalues --   -0.52428  -0.52004  -0.51965  -0.51816  -0.51428
 Alpha  occ. eigenvalues --   -0.50865  -0.50409  -0.49031  -0.48768  -0.48039
 Alpha  occ. eigenvalues --   -0.47462  -0.46716  -0.46205  -0.44565  -0.43772
 Alpha  occ. eigenvalues --   -0.43215
 Alpha virt. eigenvalues --   -0.09722  -0.06286  -0.01351  -0.00231   0.00110
 Alpha virt. eigenvalues --    0.01460   0.02584   0.04273   0.06152   0.06471
 Alpha virt. eigenvalues --    0.07936   0.09223   0.09865   0.11563   0.11966

  Beta  occ. eigenvalues --  -24.90228 -24.89700 -24.89178 -24.88618 -24.88512
  Beta  occ. eigenvalues --  -24.87598 -24.87243 -24.86731 -24.86529 -24.86439
  Beta  occ. eigenvalues --  -24.86436 -24.86416 -24.86309 -24.86266 -24.86257
  Beta  occ. eigenvalues --  -24.86116 -24.85930 -24.85831 -24.85777 -24.85685
  Beta  occ. eigenvalues --  -24.85594 -24.85552 -24.85476 -24.85305 -24.85281
  Beta  occ. eigenvalues --  -24.84974 -24.84622 -19.37525 -19.36538 -19.35760
  Beta  occ. eigenvalues --  -19.31165 -19.30790 -14.63192 -14.63009 -14.59191
  Beta  occ. eigenvalues --  -10.62928 -10.62415 -10.61728 -10.60274 -10.60197
  Beta  occ. eigenvalues --  -10.58963 -10.58817 -10.57566 -10.57465 -10.54522
  Beta  occ. eigenvalues --  -10.54209 -10.53835 -10.53391 -10.53287 -10.52016
  Beta  occ. eigenvalues --  -10.42163  -1.46469  -1.46237  -1.45741  -1.45240
  Beta  occ. eigenvalues --   -1.45106  -1.44702  -1.44378  -1.43866  -1.42436
  Beta  occ. eigenvalues --   -1.41678  -1.40083  -1.38384  -1.38143  -1.37456
  Beta  occ. eigenvalues --   -1.36554  -1.36541  -1.36178  -1.36097  -1.35578
  Beta  occ. eigenvalues --   -1.35566  -1.35466  -1.35424  -1.35170  -1.35127
  Beta  occ. eigenvalues --   -1.35087  -1.34297  -1.34022  -1.30002  -1.25054
  Beta  occ. eigenvalues --   -1.24788  -1.24204  -1.23283  -1.21287  -1.15624
  Beta  occ. eigenvalues --   -1.15504  -1.01187  -0.99094  -0.98351  -0.96290
  Beta  occ. eigenvalues --   -0.92195  -0.90440  -0.87780  -0.86090  -0.85696
  Beta  occ. eigenvalues --   -0.84686  -0.84546  -0.83271  -0.82599  -0.80814
  Beta  occ. eigenvalues --   -0.80054  -0.79192  -0.77724  -0.76718  -0.76467
  Beta  occ. eigenvalues --   -0.76230  -0.75797  -0.75179  -0.75006  -0.74561
  Beta  occ. eigenvalues --   -0.74106  -0.73416  -0.72793  -0.72494  -0.72430
  Beta  occ. eigenvalues --   -0.72185  -0.72019  -0.71819  -0.71469  -0.71099
  Beta  occ. eigenvalues --   -0.70868  -0.70633  -0.70448  -0.70265  -0.70093
  Beta  occ. eigenvalues --   -0.69833  -0.69491  -0.69046  -0.68448  -0.67716
  Beta  occ. eigenvalues --   -0.67303  -0.64689  -0.64161  -0.63508  -0.62751
  Beta  occ. eigenvalues --   -0.62345  -0.61894  -0.61532  -0.61072  -0.60903
  Beta  occ. eigenvalues --   -0.60721  -0.60045  -0.59963  -0.59836  -0.59756
  Beta  occ. eigenvalues --   -0.59504  -0.59344  -0.59170  -0.58964  -0.58813
  Beta  occ. eigenvalues --   -0.58728  -0.58536  -0.58404  -0.58257  -0.58183
  Beta  occ. eigenvalues --   -0.58030  -0.57770  -0.57532  -0.57351  -0.57300
  Beta  occ. eigenvalues --   -0.56932  -0.56741  -0.56390  -0.56190  -0.55926
  Beta  occ. eigenvalues --   -0.55864  -0.55533  -0.55484  -0.55068  -0.54862
  Beta  occ. eigenvalues --   -0.54774  -0.54600  -0.54482  -0.54213  -0.54118
  Beta  occ. eigenvalues --   -0.53831  -0.53739  -0.53646  -0.53589  -0.53328
  Beta  occ. eigenvalues --   -0.53123  -0.52817  -0.52732  -0.52641  -0.52517
  Beta  occ. eigenvalues --   -0.52403  -0.51981  -0.51954  -0.51811  -0.51404
  Beta  occ. eigenvalues --   -0.50859  -0.50273  -0.48843  -0.48639  -0.47516
  Beta  occ. eigenvalues --   -0.47319  -0.45892  -0.45317  -0.43726  -0.43117
  Beta virt. eigenvalues --   -0.23939  -0.06070  -0.05399  -0.01198  -0.00124
  Beta virt. eigenvalues --    0.00399   0.01765   0.02597   0.04605   0.06327
  Beta virt. eigenvalues --    0.06692   0.08126   0.09365   0.09982   0.11874

 Mulliken charges and spin densities:
               1          2
     1  C   -0.168755   0.660500
     2  C    0.732734   0.074982
     3  N   -0.673679   0.141049
     4  C    0.747768  -0.009124
     5  F   -0.223048   0.002751
     6  F   -0.243984   0.002900
     7  C    0.443974   0.003269
     8  F   -0.238313   0.000215
     9  O   -0.527423   0.000715
    10  C    1.005734   0.000233
    11  F   -0.233852   0.000013
    12  F   -0.236033   0.000002
    13  F   -0.232226   0.000100
    14  C    0.827313   0.000709
    15  F   -0.247846   0.000253
    16  F   -0.243520   0.000030
    17  F   -0.234463   0.000018
    18  C    0.891661  -0.023535
    19  O   -0.431706   0.033373
    20  N   -0.657948   0.014399
    21  C    0.762480  -0.000510
    22  F   -0.247138   0.000318
    23  F   -0.242328   0.000157
    24  C    0.440562   0.000909
    25  F   -0.249705   0.000017
    26  O   -0.512973   0.000031
    27  C    1.001311   0.000008
    28  F   -0.238817   0.000005
    29  F   -0.239563   0.000018
    30  F   -0.237156  -0.000001
    31  C    0.819805   0.000016
    32  F   -0.240522   0.000011
    33  F   -0.253998   0.000102
    34  F   -0.242295   0.000007
    35  C    0.868331  -0.022681
    36  O   -0.425504   0.034368
    37  N   -0.648890   0.132387
    38  C    0.740490  -0.007460
    39  F   -0.248946   0.003018
    40  F   -0.214607  -0.000139
    41  C    0.426303   0.003767
    42  F   -0.266832   0.004304
    43  O   -0.510024   0.001448
    44  C    1.020502   0.000066
    45  F   -0.231738   0.000119
    46  F   -0.248723  -0.000013
    47  F   -0.243729   0.000059
    48  C    0.836786   0.000020
    49  F   -0.248618   0.000558
    50  F   -0.240037   0.000039
    51  F   -0.224517   0.000040
    52  H    0.240056  -0.026867
    53  H    0.243647  -0.026970
 Sum of Mulliken charges =   1.00000   1.00000

 Dipole moment (field-independent basis, Debye):
    X=             -8.4345    Y=              2.4695    Z=              2.0156  Tot=              9.0167
 Quadrupole moment (field-independent basis, Debye-Ang):
   XX=           -242.5056   YY=           -254.3592   ZZ=           -259.7632
   XY=             -3.7415   XZ=             -4.1343   YZ=              3.9362

 Normal termination of Gaussian 09 at Sun Mar  3 18:18:44 2024.
