 Gaussian 09, Revision D.01,
 Gaussian 09:  ES64L-G09RevD.01 24-Apr-2013

 ----------------------------------------------------------------------
 #p CAM-B3LYP/6-31G(d,p) SCRF=(PCM,Solvent=Generic,Read) NoSymm out=wfn
 ----------------------------------------------------------------------

 -------------------
 Title A591161040_p1
 -------------------
 Symbolic Z-matrix:
 Charge =  1 Multiplicity = 2

                          Input orientation:
 ---------------------------------------------------------------------
 Center     Atomic      Atomic             Coordinates (Angstroms)
 Number     Number       Type             X           Y           Z
 ---------------------------------------------------------------------
      1          8           0        2.175025   -1.901031    1.735791
      2          6           0        1.198726   -1.367255    1.221749
      3          7           0        0.101647   -1.148439    1.984750
      4          6           0       -0.820380   -0.132584    1.632457
      5          7           0       -1.068831   -0.139537    0.225355
      6          6           0       -2.143262    0.714599   -0.276559
      7          9           0       -1.699165    2.001342   -0.181323
      8          9           0       -2.331195    0.464839   -1.600322
      9          6           0       -3.544180    0.656019    0.392596
     10          9           0       -3.377686    0.872033    1.744789
     11          8           0       -4.464436    1.700956    0.048899
     12          6           0       -4.646061    1.915293   -1.326992
     13          9           0       -4.866468    0.758088   -1.960394
     14          9           0       -5.721149    2.707405   -1.492276
     15          9           0       -3.573171    2.533230   -1.838626
     16          6           0       -4.097227   -0.762435    0.215831
     17          9           0       -5.367884   -0.846743    0.680935
     18          9           0       -3.367918   -1.659013    0.926965
     19          9           0       -4.107326   -1.201338   -1.056037
     20          6           0        0.065829   -0.208086   -0.575043
     21          8           0        0.133246    0.360622   -1.659722
     22          7           0        1.125149   -0.942690   -0.077570
     23          6           0        2.314499   -1.115544   -0.899619
     24          9           0        1.993892   -1.109499   -2.226346
     25          9           0        2.758113   -2.398439   -0.714002
     26          6           0        3.497424   -0.144819   -0.655667
     27          9           0        4.556123   -0.514583   -1.443560
     28          8           0        3.944447   -0.097483    0.706473
     29          6           0        5.042519   -0.945497    0.933101
     30          9           0        4.857219   -2.159596    0.395007
     31          9           0        6.152373   -0.383166    0.418303
     32          9           0        5.215291   -1.074227    2.262987
     33          6           0        3.079438    1.258518   -1.071272
     34          9           0        4.112106    2.128316   -0.909740
     35          9           0        2.071694    1.728740   -0.295162
     36          9           0        2.698609    1.345768   -2.359711
     37          1           0        0.232807   -1.383584    2.962404
     38          1           0       -1.722565   -0.348084    2.202430
     39          1           0       -0.407271    0.837903    1.929121
 ---------------------------------------------------------------------

 SCF Done:  E(UCAM-B3LYP) =  -2682.19630604     A.U. after   28 cycles

 Alpha  occ. eigenvalues --  -24.88008 -24.87244 -24.86893 -24.86863 -24.86862
 Alpha  occ. eigenvalues --  -24.86832 -24.86550 -24.86246 -24.86198 -24.86158
 Alpha  occ. eigenvalues --  -24.85973 -24.85927 -24.85664 -24.85636 -24.85593
 Alpha  occ. eigenvalues --  -24.85450 -24.85023 -24.84880 -19.38254 -19.36358
 Alpha  occ. eigenvalues --  -19.36021 -19.29642 -14.66369 -14.60032 -14.57406
 Alpha  occ. eigenvalues --  -10.62012 -10.61932 -10.58543 -10.58116 -10.57790
 Alpha  occ. eigenvalues --  -10.57223 -10.55627 -10.53178 -10.52519 -10.51956
 Alpha  occ. eigenvalues --  -10.47127  -1.45883  -1.45300  -1.44880  -1.44476
 Alpha  occ. eigenvalues --   -1.42931  -1.42725  -1.40034  -1.39046  -1.36603
 Alpha  occ. eigenvalues --   -1.36029  -1.35856  -1.35783  -1.35729  -1.35264
 Alpha  occ. eigenvalues --   -1.35217  -1.35111  -1.34762  -1.34468  -1.32609
 Alpha  occ. eigenvalues --   -1.25916  -1.23683  -1.23677  -1.21916  -1.16244
 Alpha  occ. eigenvalues --   -1.14152  -0.98064  -0.97244  -0.94519  -0.90360
 Alpha  occ. eigenvalues --   -0.88879  -0.85565  -0.85052  -0.83420  -0.82249
 Alpha  occ. eigenvalues --   -0.79878  -0.78575  -0.77787  -0.76576  -0.75884
 Alpha  occ. eigenvalues --   -0.74882  -0.74643  -0.74130  -0.73767  -0.73652
 Alpha  occ. eigenvalues --   -0.72355  -0.72184  -0.72011  -0.71900  -0.71572
 Alpha  occ. eigenvalues --   -0.70859  -0.70568  -0.70277  -0.69544  -0.69246
 Alpha  occ. eigenvalues --   -0.68368  -0.67907  -0.67447  -0.66059  -0.64080
 Alpha  occ. eigenvalues --   -0.63078  -0.62222  -0.61534  -0.60702  -0.60182
 Alpha  occ. eigenvalues --   -0.59871  -0.59717  -0.59443  -0.59231  -0.58893
 Alpha  occ. eigenvalues --   -0.58824  -0.58724  -0.58492  -0.58179  -0.57626
 Alpha  occ. eigenvalues --   -0.57461  -0.57091  -0.56696  -0.56650  -0.56143
 Alpha  occ. eigenvalues --   -0.55746  -0.55446  -0.55283  -0.55031  -0.54672
 Alpha  occ. eigenvalues --   -0.54401  -0.54300  -0.54161  -0.54067  -0.53602
 Alpha  occ. eigenvalues --   -0.53186  -0.52924  -0.52767  -0.52687  -0.52163
 Alpha  occ. eigenvalues --   -0.51987  -0.51949  -0.51840  -0.51588  -0.51434
 Alpha  occ. eigenvalues --   -0.51021  -0.50071  -0.47992  -0.46714  -0.45407
 Alpha  occ. eigenvalues --   -0.44478  -0.42228
 Alpha virt. eigenvalues --   -0.08265  -0.01594   0.00162   0.02233   0.02877
 Alpha virt. eigenvalues --    0.04470   0.05200   0.09281   0.10532   0.10819
 Alpha virt. eigenvalues --    0.11715   0.12643   0.13811   0.14246   0.15740

  Beta  occ. eigenvalues --  -24.88001 -24.87243 -24.86894 -24.86863 -24.86860
  Beta  occ. eigenvalues --  -24.86826 -24.86528 -24.86246 -24.86197 -24.86158
  Beta  occ. eigenvalues --  -24.85973 -24.85927 -24.85664 -24.85636 -24.85593
  Beta  occ. eigenvalues --  -24.85450 -24.85023 -24.84880 -19.37195 -19.36357
  Beta  occ. eigenvalues --  -19.36017 -19.29656 -14.65013 -14.60080 -14.57323
  Beta  occ. eigenvalues --  -10.62012 -10.61932 -10.58543 -10.58116 -10.57789
  Beta  occ. eigenvalues --  -10.57227 -10.55881 -10.53178 -10.52522 -10.51954
  Beta  occ. eigenvalues --  -10.47130  -1.45882  -1.45298  -1.44880  -1.44476
  Beta  occ. eigenvalues --   -1.42912  -1.42716  -1.40022  -1.39046  -1.36602
  Beta  occ. eigenvalues --   -1.36014  -1.35851  -1.35780  -1.35725  -1.35236
  Beta  occ. eigenvalues --   -1.35216  -1.35110  -1.34761  -1.34465  -1.31190
  Beta  occ. eigenvalues --   -1.25284  -1.23677  -1.23651  -1.20101  -1.16037
  Beta  occ. eigenvalues --   -1.13180  -0.98025  -0.97144  -0.94006  -0.90228
  Beta  occ. eigenvalues --   -0.88529  -0.85511  -0.85050  -0.83416  -0.82058
  Beta  occ. eigenvalues --   -0.79544  -0.78500  -0.77637  -0.76466  -0.75760
  Beta  occ. eigenvalues --   -0.74694  -0.74288  -0.73891  -0.73694  -0.72564
  Beta  occ. eigenvalues --   -0.72314  -0.72044  -0.71892  -0.71547  -0.71347
  Beta  occ. eigenvalues --   -0.70823  -0.70273  -0.70217  -0.69402  -0.68955
  Beta  occ. eigenvalues --   -0.68290  -0.67710  -0.67039  -0.64656  -0.63114
  Beta  occ. eigenvalues --   -0.62743  -0.61385  -0.61268  -0.60627  -0.60059
  Beta  occ. eigenvalues --   -0.59671  -0.59608  -0.59342  -0.59157  -0.58872
  Beta  occ. eigenvalues --   -0.58792  -0.58666  -0.58449  -0.58140  -0.57504
  Beta  occ. eigenvalues --   -0.57357  -0.57059  -0.56589  -0.56393  -0.56084
  Beta  occ. eigenvalues --   -0.55569  -0.55383  -0.55261  -0.54958  -0.54648
  Beta  occ. eigenvalues --   -0.54276  -0.54175  -0.54126  -0.53789  -0.53486
  Beta  occ. eigenvalues --   -0.53111  -0.52852  -0.52735  -0.52193  -0.51986
  Beta  occ. eigenvalues --   -0.51972  -0.51838  -0.51578  -0.51188  -0.51162
  Beta  occ. eigenvalues --   -0.48961  -0.47137  -0.46677  -0.44904  -0.44318
  Beta  occ. eigenvalues --   -0.41889
  Beta virt. eigenvalues --   -0.27860  -0.06780  -0.01086   0.00184   0.02394
  Beta virt. eigenvalues --    0.03048   0.04690   0.05298   0.09372   0.10779
  Beta virt. eigenvalues --    0.11342   0.12004   0.12840   0.13828   0.14701

 Mulliken charges and spin densities:
               1          2
     1  O   -0.320436   0.410213
     2  C    0.865436  -0.149728
     3  N   -0.361794   0.626224
     4  C    0.041786  -0.019051
     5  N   -0.575888   0.038631
     6  C    0.774188  -0.001407
     7  F   -0.261468   0.000329
     8  F   -0.250409   0.001522
     9  C    0.410107  -0.000003
    10  F   -0.268196   0.001413
    11  O   -0.490594   0.000134
    12  C    0.990563   0.000003
    13  F   -0.235380   0.000008
    14  F   -0.233108   0.000015
    15  F   -0.234923   0.000018
    16  C    0.812388  -0.000002
    17  F   -0.239940  -0.000001
    18  F   -0.249642   0.000248
    19  F   -0.225518   0.000012
    20  C    0.868092  -0.000412
    21  O   -0.437656  -0.004836
    22  N   -0.631118  -0.013198
    23  C    0.747981  -0.000735
    24  F   -0.229379   0.000621
    25  F   -0.249059   0.004593
    26  C    0.436068  -0.000854
    27  F   -0.257618  -0.000063
    28  O   -0.538050   0.000959
    29  C    1.029753  -0.000434
    30  F   -0.245073   0.000106
    31  F   -0.243643   0.000068
    32  F   -0.242486   0.000044
    33  C    0.820709   0.000030
    34  F   -0.246566   0.000007
    35  F   -0.255221   0.000059
    36  F   -0.227826   0.000010
    37  H    0.411185  -0.017652
    38  H    0.254139   0.033061
    39  H    0.288598   0.090045
 Sum of Mulliken charges =   1.00000   1.00000

 Dipole moment (field-independent basis, Debye):
    X=             -1.4972    Y=             -3.5586    Z=              9.9496  Tot=             10.6724
 Quadrupole moment (field-independent basis, Debye-Ang):
   XX=           -178.1628   YY=           -182.4764   ZZ=           -166.0563
   XY=             -1.4519   XZ=             -2.1338   YZ=             -5.7001

 Normal termination of Gaussian 09 at Sun Mar  3 18:07:44 2024.
