 Gaussian 09, Revision D.01,
 Gaussian 09:  ES64L-G09RevD.01 24-Apr-2013

 ----------------------------------------------------------------------
 #p CAM-B3LYP/6-31G(d,p) SCRF=(PCM,Solvent=Generic,Read) NoSymm out=wfn
 ----------------------------------------------------------------------

 ------------------
 Title A591161040_0
 ------------------
 Symbolic Z-matrix:
 Charge =  0 Multiplicity = 1

                          Input orientation:
 ---------------------------------------------------------------------
 Center     Atomic      Atomic             Coordinates (Angstroms)
 Number     Number       Type             X           Y           Z
 ---------------------------------------------------------------------
      1          8           0        2.175025   -1.901031    1.735791
      2          6           0        1.198726   -1.367255    1.221749
      3          7           0        0.101647   -1.148439    1.984750
      4          6           0       -0.820380   -0.132584    1.632457
      5          7           0       -1.068831   -0.139537    0.225355
      6          6           0       -2.143262    0.714599   -0.276559
      7          9           0       -1.699165    2.001342   -0.181323
      8          9           0       -2.331195    0.464839   -1.600322
      9          6           0       -3.544180    0.656019    0.392596
     10          9           0       -3.377686    0.872033    1.744789
     11          8           0       -4.464436    1.700956    0.048899
     12          6           0       -4.646061    1.915293   -1.326992
     13          9           0       -4.866468    0.758088   -1.960394
     14          9           0       -5.721149    2.707405   -1.492276
     15          9           0       -3.573171    2.533230   -1.838626
     16          6           0       -4.097227   -0.762435    0.215831
     17          9           0       -5.367884   -0.846743    0.680935
     18          9           0       -3.367918   -1.659013    0.926965
     19          9           0       -4.107326   -1.201338   -1.056037
     20          6           0        0.065829   -0.208086   -0.575043
     21          8           0        0.133246    0.360622   -1.659722
     22          7           0        1.125149   -0.942690   -0.077570
     23          6           0        2.314499   -1.115544   -0.899619
     24          9           0        1.993892   -1.109499   -2.226346
     25          9           0        2.758113   -2.398439   -0.714002
     26          6           0        3.497424   -0.144819   -0.655667
     27          9           0        4.556123   -0.514583   -1.443560
     28          8           0        3.944447   -0.097483    0.706473
     29          6           0        5.042519   -0.945497    0.933101
     30          9           0        4.857219   -2.159596    0.395007
     31          9           0        6.152373   -0.383166    0.418303
     32          9           0        5.215291   -1.074227    2.262987
     33          6           0        3.079438    1.258518   -1.071272
     34          9           0        4.112106    2.128316   -0.909740
     35          9           0        2.071694    1.728740   -0.295162
     36          9           0        2.698609    1.345768   -2.359711
     37          1           0        0.232807   -1.383584    2.962404
     38          1           0       -1.722565   -0.348084    2.202430
     39          1           0       -0.407271    0.837903    1.929121
 ---------------------------------------------------------------------

 SCF Done:  E(RCAM-B3LYP) =  -2682.50589364     A.U. after   13 cycles

 Alpha  occ. eigenvalues --  -24.84358 -24.84233 -24.84032 -24.83670 -24.83584
 Alpha  occ. eigenvalues --  -24.83566 -24.83557 -24.83528 -24.83213 -24.83146
 Alpha  occ. eigenvalues --  -24.82765 -24.82714 -24.82699 -24.82392 -24.82335
 Alpha  occ. eigenvalues --  -24.82327 -24.81987 -24.81298 -19.33696 -19.32173
 Alpha  occ. eigenvalues --  -19.23231 -19.21458 -14.51823 -14.49938 -14.46213
 Alpha  occ. eigenvalues --  -10.59906 -10.58872 -10.55691 -10.55010 -10.52522
 Alpha  occ. eigenvalues --  -10.52496 -10.49750 -10.48613 -10.45408 -10.43276
 Alpha  occ. eigenvalues --  -10.36505  -1.43657  -1.42259  -1.42233  -1.41502
 Alpha  occ. eigenvalues --   -1.38697  -1.38290  -1.36463  -1.35678  -1.34350
 Alpha  occ. eigenvalues --   -1.33387  -1.32984  -1.32819  -1.32715  -1.32649
 Alpha  occ. eigenvalues --   -1.32063  -1.31813  -1.31690  -1.30550  -1.21056
 Alpha  occ. eigenvalues --   -1.20702  -1.19803  -1.16148  -1.10113  -1.07672
 Alpha  occ. eigenvalues --   -1.02874  -0.93641  -0.93165  -0.85399  -0.84093
 Alpha  occ. eigenvalues --   -0.82487  -0.81210  -0.80357  -0.78935  -0.77157
 Alpha  occ. eigenvalues --   -0.75371  -0.73717  -0.73499  -0.71962  -0.71280
 Alpha  occ. eigenvalues --   -0.70969  -0.70336  -0.70201  -0.69800  -0.69303
 Alpha  occ. eigenvalues --   -0.69212  -0.68912  -0.68041  -0.67762  -0.67328
 Alpha  occ. eigenvalues --   -0.66280  -0.65951  -0.65504  -0.64604  -0.63424
 Alpha  occ. eigenvalues --   -0.62244  -0.60507  -0.59650  -0.59314  -0.58618
 Alpha  occ. eigenvalues --   -0.57583  -0.57261  -0.56811  -0.56476  -0.56436
 Alpha  occ. eigenvalues --   -0.56160  -0.56118  -0.55865  -0.55580  -0.55219
 Alpha  occ. eigenvalues --   -0.54999  -0.54721  -0.54396  -0.54311  -0.53642
 Alpha  occ. eigenvalues --   -0.53486  -0.53103  -0.52860  -0.52467  -0.52236
 Alpha  occ. eigenvalues --   -0.51947  -0.51769  -0.51620  -0.51410  -0.51282
 Alpha  occ. eigenvalues --   -0.50787  -0.50521  -0.50403  -0.50251  -0.50112
 Alpha  occ. eigenvalues --   -0.49919  -0.49529  -0.49363  -0.49248  -0.49003
 Alpha  occ. eigenvalues --   -0.48920  -0.48692  -0.48350  -0.47843  -0.47255
 Alpha  occ. eigenvalues --   -0.43703  -0.42882  -0.38884  -0.38165  -0.36927
 Alpha  occ. eigenvalues --   -0.35387  -0.33970
 Alpha virt. eigenvalues --    0.01361   0.04223   0.06294   0.07050   0.08325
 Alpha virt. eigenvalues --    0.09296   0.12127   0.14358   0.16423   0.16964
 Alpha virt. eigenvalues --    0.18805   0.19084   0.19576   0.20282   0.20466

 Mulliken charges:
               1
     1  O   -0.526088
     2  C    0.787065
     3  N   -0.567533
     4  C    0.088846
     5  N   -0.576640
     6  C    0.768888
     7  F   -0.275320
     8  F   -0.266282
     9  C    0.410091
    10  F   -0.269952
    11  O   -0.500502
    12  C    0.986087
    13  F   -0.237840
    14  F   -0.238838
    15  F   -0.236085
    16  C    0.805676
    17  F   -0.248632
    18  F   -0.244578
    19  F   -0.231314
    20  C    0.838042
    21  O   -0.494642
    22  N   -0.631120
    23  C    0.745655
    24  F   -0.248698
    25  F   -0.260928
    26  C    0.431302
    27  F   -0.272736
    28  O   -0.529238
    29  C    1.027394
    30  F   -0.247224
    31  F   -0.253152
    32  F   -0.247828
    33  C    0.813926
    34  F   -0.256155
    35  F   -0.252538
    36  F   -0.234825
    37  H    0.319695
    38  H    0.168413
    39  H    0.157608
 Sum of Mulliken charges =   0.00000

 Dipole moment (field-independent basis, Debye):
    X=             -3.7591    Y=              0.5524    Z=              3.9389  Tot=              5.4727
 Quadrupole moment (field-independent basis, Debye-Ang):
   XX=           -199.5568   YY=           -195.3816   ZZ=           -185.8813
   XY=              5.5284   XZ=             -4.9029   YZ=              2.4816

 Normal termination of Gaussian 09 at Sun Mar  3 18:06:33 2024.
