 Gaussian 09, Revision D.01,
 Gaussian 09:  ES64L-G09RevD.01 24-Apr-2013

 ----------------------------------------------------------------------
 #p CAM-B3LYP/6-31G(d,p) SCRF=(PCM,Solvent=Generic,Read) NoSymm out=wfn
 ----------------------------------------------------------------------

 ------------------
 Title A902650421_0
 ------------------
 Symbolic Z-matrix:
 Charge =  0 Multiplicity = 1

                          Input orientation:
 ---------------------------------------------------------------------
 Center     Atomic      Atomic             Coordinates (Angstroms)
 Number     Number       Type             X           Y           Z
 ---------------------------------------------------------------------
      1          6           0       -3.738372   -1.386680   -2.231744
      2          6           0       -3.443111   -0.202299   -1.682865
      3          7           0       -2.359588    0.151220   -0.859210
      4          6           0       -2.357860    1.461817   -0.364595
      5          8           0       -3.323852    2.218958   -0.530974
      6          7           0       -1.211794    1.880280    0.320751
      7          6           0       -1.158891    3.234631    0.691079
      8          6           0       -0.232809    3.871142    1.418262
      9          6           0       -0.169245    1.000346    0.583786
     10          8           0        0.960717    1.355845    0.918845
     11          7           0       -0.439401   -0.330672    0.406514
     12          6           0        0.592393   -1.283615    0.801218
     13          9           0        1.042838   -0.939333    2.040799
     14          9           0       -0.018654   -2.483654    1.033815
     15          6           0        1.786757   -1.473362   -0.183757
     16          9           0        1.288501   -1.834101   -1.414347
     17          8           0        2.511115   -0.278454   -0.498470
     18          6           0        3.545947    0.047508    0.398600
     19          9           0        3.937965    1.313859    0.170391
     20          9           0        4.592792   -0.766516    0.182468
     21          9           0        3.150237   -0.071301    1.671377
     22          6           0        2.599136   -2.673376    0.325380
     23          9           0        1.874287   -3.813324    0.373041
     24          9           0        3.648336   -2.925978   -0.497069
     25          9           0        3.107604   -2.477255    1.560219
     26          6           0       -1.345140   -0.747912   -0.538312
     27          8           0       -1.214935   -1.852349   -1.065495
     28          1           0       -3.151124   -2.288530   -2.109083
     29          1           0       -4.628686   -1.487716   -2.846985
     30          1           0       -4.144870    0.606984   -1.891786
     31          1           0       -2.001939    3.838923    0.351945
     32          1           0       -0.345267    4.932566    1.623676
     33          1           0        0.646914    3.402350    1.842523
 ---------------------------------------------------------------------

 SCF Done:  E(RCAM-B3LYP) =  -1785.90703792     A.U. after   13 cycles

 Alpha  occ. eigenvalues --  -24.83174 -24.83094 -24.83059 -24.82987 -24.82929
 Alpha  occ. eigenvalues --  -24.82648 -24.82567 -24.82559 -24.82398 -19.32639
 Alpha  occ. eigenvalues --  -19.24421 -19.24270 -19.24085 -14.52352 -14.51894
 Alpha  occ. eigenvalues --  -14.51887 -10.59154 -10.55107 -10.53004 -10.48915
 Alpha  occ. eigenvalues --  -10.46060 -10.45923 -10.45689 -10.32123 -10.32053
 Alpha  occ. eigenvalues --  -10.26931 -10.26816  -1.42896  -1.41472  -1.38887
 Alpha  occ. eigenvalues --   -1.35056  -1.33389  -1.32939  -1.32346  -1.31906
 Alpha  occ. eigenvalues --   -1.31233  -1.22583  -1.20065  -1.17556  -1.17447
 Alpha  occ. eigenvalues --   -1.09368  -1.07349  -1.07013  -0.92701  -0.88409
 Alpha  occ. eigenvalues --   -0.86146  -0.84261  -0.82084  -0.79938  -0.78121
 Alpha  occ. eigenvalues --   -0.75917  -0.74451  -0.74150  -0.72926  -0.71406
 Alpha  occ. eigenvalues --   -0.70530  -0.69125  -0.68054  -0.67923  -0.66741
 Alpha  occ. eigenvalues --   -0.66554  -0.65508  -0.63570  -0.61762  -0.59413
 Alpha  occ. eigenvalues --   -0.59055  -0.58322  -0.57560  -0.56954  -0.56669
 Alpha  occ. eigenvalues --   -0.55919  -0.55678  -0.55275  -0.55141  -0.54470
 Alpha  occ. eigenvalues --   -0.54044  -0.53750  -0.53210  -0.52967  -0.52753
 Alpha  occ. eigenvalues --   -0.52264  -0.51684  -0.51106  -0.50842  -0.50547
 Alpha  occ. eigenvalues --   -0.50228  -0.49967  -0.49722  -0.49215  -0.48527
 Alpha  occ. eigenvalues --   -0.48152  -0.47665  -0.46401  -0.45672  -0.43556
 Alpha  occ. eigenvalues --   -0.42603  -0.41689  -0.39503  -0.38498  -0.37499
 Alpha  occ. eigenvalues --   -0.36236  -0.32467  -0.31039
 Alpha virt. eigenvalues --   -0.00217   0.00193   0.03424   0.05522   0.08847
 Alpha virt. eigenvalues --    0.09465   0.13598   0.13779   0.15209   0.16986
 Alpha virt. eigenvalues --    0.17438   0.18398   0.20002   0.20561   0.21067

 Mulliken charges:
               1
     1  C   -0.264579
     2  C    0.108328
     3  N   -0.613605
     4  C    0.845163
     5  O   -0.504651
     6  N   -0.608872
     7  C    0.109226
     8  C   -0.263909
     9  C    0.829248
    10  O   -0.490442
    11  N   -0.625599
    12  C    0.773291
    13  F   -0.255655
    14  F   -0.261716
    15  C    0.446412
    16  F   -0.261484
    17  O   -0.504619
    18  C    1.013095
    19  F   -0.245845
    20  F   -0.249200
    21  F   -0.242941
    22  C    0.797662
    23  F   -0.244718
    24  F   -0.260517
    25  F   -0.247528
    26  C    0.830337
    27  O   -0.486273
    28  H    0.146641
    29  H    0.126014
    30  H    0.166901
    31  H    0.167435
    32  H    0.127769
    33  H    0.144627
 Sum of Mulliken charges =   0.00000

 Dipole moment (field-independent basis, Debye):
    X=             -1.9223    Y=              1.7794    Z=              0.1187  Tot=              2.6222
 Quadrupole moment (field-independent basis, Debye-Ang):
   XX=           -148.1866   YY=           -147.0063   ZZ=           -144.7907
   XY=              3.4357   XZ=              2.0817   YZ=              1.4973

 Normal termination of Gaussian 09 at Sun Mar  3 17:58:59 2024.
