 Gaussian 09, Revision D.01,
 Gaussian 09:  ES64L-G09RevD.01 24-Apr-2013

 ----------------------------------------------------------------------
 #p CAM-B3LYP/6-31G(d,p) SCRF=(PCM,Solvent=Generic,Read) NoSymm out=wfn
 ----------------------------------------------------------------------

 -------------------
 Title A902650421_p1
 -------------------
 Symbolic Z-matrix:
 Charge =  1 Multiplicity = 2

                          Input orientation:
 ---------------------------------------------------------------------
 Center     Atomic      Atomic             Coordinates (Angstroms)
 Number     Number       Type             X           Y           Z
 ---------------------------------------------------------------------
      1          6           0       -3.738372   -1.386680   -2.231744
      2          6           0       -3.443111   -0.202299   -1.682865
      3          7           0       -2.359588    0.151220   -0.859210
      4          6           0       -2.357860    1.461817   -0.364595
      5          8           0       -3.323852    2.218958   -0.530974
      6          7           0       -1.211794    1.880280    0.320751
      7          6           0       -1.158891    3.234631    0.691079
      8          6           0       -0.232809    3.871142    1.418262
      9          6           0       -0.169245    1.000346    0.583786
     10          8           0        0.960717    1.355845    0.918845
     11          7           0       -0.439401   -0.330672    0.406514
     12          6           0        0.592393   -1.283615    0.801218
     13          9           0        1.042838   -0.939333    2.040799
     14          9           0       -0.018654   -2.483654    1.033815
     15          6           0        1.786757   -1.473362   -0.183757
     16          9           0        1.288501   -1.834101   -1.414347
     17          8           0        2.511115   -0.278454   -0.498470
     18          6           0        3.545947    0.047508    0.398600
     19          9           0        3.937965    1.313859    0.170391
     20          9           0        4.592792   -0.766516    0.182468
     21          9           0        3.150237   -0.071301    1.671377
     22          6           0        2.599136   -2.673376    0.325380
     23          9           0        1.874287   -3.813324    0.373041
     24          9           0        3.648336   -2.925978   -0.497069
     25          9           0        3.107604   -2.477255    1.560219
     26          6           0       -1.345140   -0.747912   -0.538312
     27          8           0       -1.214935   -1.852349   -1.065495
     28          1           0       -3.151124   -2.288530   -2.109083
     29          1           0       -4.628686   -1.487716   -2.846985
     30          1           0       -4.144870    0.606984   -1.891786
     31          1           0       -2.001939    3.838923    0.351945
     32          1           0       -0.345267    4.932566    1.623676
     33          1           0        0.646914    3.402350    1.842523
 ---------------------------------------------------------------------

 SCF Done:  E(UCAM-B3LYP) =  -1785.62487447     A.U. after   29 cycles

 Alpha  occ. eigenvalues --  -24.85831 -24.85818 -24.85383 -24.85321 -24.85193
 Alpha  occ. eigenvalues --  -24.85073 -24.84877 -24.84853 -24.84243 -19.35232
 Alpha  occ. eigenvalues --  -19.31130 -19.30651 -19.29990 -14.61146 -14.60833
 Alpha  occ. eigenvalues --  -14.57681 -10.61342 -10.57199 -10.56573 -10.52355
 Alpha  occ. eigenvalues --  -10.52080 -10.51895 -10.51680 -10.41240 -10.40637
 Alpha  occ. eigenvalues --  -10.36849 -10.36195  -1.45013  -1.43497  -1.42030
 Alpha  occ. eigenvalues --   -1.37753  -1.35637  -1.34936  -1.34616  -1.34160
 Alpha  occ. eigenvalues --   -1.33609  -1.29190  -1.24179  -1.23518  -1.22543
 Alpha  occ. eigenvalues --   -1.15771  -1.14930  -1.13532  -0.97263  -0.95186
 Alpha  occ. eigenvalues --   -0.94779  -0.89293  -0.87091  -0.84423  -0.84285
 Alpha  occ. eigenvalues --   -0.81578  -0.80807  -0.77795  -0.75991  -0.74297
 Alpha  occ. eigenvalues --   -0.74089  -0.72978  -0.71746  -0.71297  -0.70140
 Alpha  occ. eigenvalues --   -0.69504  -0.68780  -0.68161  -0.66690  -0.66364
 Alpha  occ. eigenvalues --   -0.65620  -0.62578  -0.61722  -0.61497  -0.60682
 Alpha  occ. eigenvalues --   -0.60099  -0.59749  -0.59522  -0.58730  -0.58445
 Alpha  occ. eigenvalues --   -0.58316  -0.57880  -0.57720  -0.57327  -0.56698
 Alpha  occ. eigenvalues --   -0.55991  -0.55599  -0.55137  -0.54492  -0.53830
 Alpha  occ. eigenvalues --   -0.53237  -0.52949  -0.52597  -0.52377  -0.52002
 Alpha  occ. eigenvalues --   -0.51579  -0.51288  -0.50535  -0.50101  -0.49522
 Alpha  occ. eigenvalues --   -0.48548  -0.46474  -0.45503  -0.44556  -0.43014
 Alpha  occ. eigenvalues --   -0.42212  -0.41131  -0.40370
 Alpha virt. eigenvalues --   -0.06632  -0.06117  -0.03995   0.00742   0.02491
 Alpha virt. eigenvalues --    0.05983   0.06764   0.08894   0.09730   0.11863
 Alpha virt. eigenvalues --    0.12379   0.14893   0.15144   0.15619   0.16008

  Beta  occ. eigenvalues --  -24.85831 -24.85818 -24.85381 -24.85321 -24.85193
  Beta  occ. eigenvalues --  -24.85073 -24.84877 -24.84853 -24.84243 -19.35230
  Beta  occ. eigenvalues --  -19.30973 -19.30498 -19.30115 -14.60731 -14.60439
  Beta  occ. eigenvalues --  -14.57700 -10.61342 -10.57200 -10.56573 -10.52409
  Beta  occ. eigenvalues --  -10.52132 -10.51968 -10.51681 -10.41213 -10.40624
  Beta  occ. eigenvalues --  -10.36343 -10.35722  -1.45013  -1.43497  -1.42031
  Beta  occ. eigenvalues --   -1.37750  -1.35637  -1.34936  -1.34616  -1.34160
  Beta  occ. eigenvalues --   -1.33609  -1.28919  -1.23883  -1.23468  -1.22530
  Beta  occ. eigenvalues --   -1.15510  -1.14223  -1.13376  -0.96649  -0.94917
  Beta  occ. eigenvalues --   -0.93636  -0.89211  -0.86635  -0.84397  -0.83828
  Beta  occ. eigenvalues --   -0.81258  -0.80705  -0.77732  -0.75975  -0.74080
  Beta  occ. eigenvalues --   -0.73812  -0.72957  -0.71693  -0.71284  -0.70122
  Beta  occ. eigenvalues --   -0.69390  -0.68750  -0.67453  -0.66516  -0.66150
  Beta  occ. eigenvalues --   -0.65377  -0.62404  -0.61626  -0.60778  -0.60347
  Beta  occ. eigenvalues --   -0.59715  -0.59482  -0.59283  -0.58701  -0.58335
  Beta  occ. eigenvalues --   -0.58057  -0.57712  -0.57676  -0.57300  -0.56655
  Beta  occ. eigenvalues --   -0.55959  -0.55587  -0.55097  -0.54378  -0.53670
  Beta  occ. eigenvalues --   -0.53058  -0.52918  -0.52464  -0.52315  -0.51886
  Beta  occ. eigenvalues --   -0.51525  -0.51039  -0.50523  -0.50019  -0.48318
  Beta  occ. eigenvalues --   -0.47718  -0.46044  -0.45222  -0.44521  -0.42387
  Beta  occ. eigenvalues --   -0.42069  -0.34715
  Beta virt. eigenvalues --   -0.25346  -0.06078  -0.05399  -0.02309   0.02444
  Beta virt. eigenvalues --    0.03139   0.06155   0.07779   0.09161   0.09808
  Beta virt. eigenvalues --    0.12026   0.12548   0.14952   0.15367   0.15953

 Mulliken charges and spin densities:
               1          2
     1  C   -0.174673   0.349038
     2  C    0.157767   0.011957
     3  N   -0.591616   0.165367
     4  C    0.875307  -0.041306
     5  O   -0.469461  -0.045577
     6  N   -0.585486   0.173894
     7  C    0.165303   0.022644
     8  C   -0.168696   0.370240
     9  C    0.865698  -0.029973
    10  O   -0.442891   0.061698
    11  N   -0.630695  -0.005795
    12  C    0.775602  -0.000592
    13  F   -0.247180   0.000027
    14  F   -0.252953   0.000012
    15  C    0.446946  -0.000180
    16  F   -0.259498   0.000338
    17  O   -0.506316   0.000602
    18  C    1.015008  -0.000136
    19  F   -0.243362   0.000008
    20  F   -0.243815   0.000016
    21  F   -0.242720  -0.000006
    22  C    0.803942  -0.000047
    23  F   -0.241950   0.000002
    24  F   -0.255388  -0.000017
    25  F   -0.244247   0.000001
    26  C    0.865952  -0.029270
    27  O   -0.436023   0.060467
    28  H    0.205663  -0.014069
    29  H    0.196778  -0.015802
    30  H    0.224306  -0.000794
    31  H    0.228851  -0.001082
    32  H    0.202558  -0.016738
    33  H    0.207289  -0.014927
 Sum of Mulliken charges =   1.00000   1.00000

 Dipole moment (field-independent basis, Debye):
    X=             -9.9530    Y=              6.9446    Z=             -1.2718  Tot=             12.2028
 Quadrupole moment (field-independent basis, Debye-Ang):
   XX=           -114.9838   YY=           -112.0557   ZZ=           -129.9176
   XY=              4.5265   XZ=             15.4690   YZ=             13.7394

 Normal termination of Gaussian 09 at Sun Mar  3 17:59:43 2024.
