 Gaussian 09, Revision D.01,
 Gaussian 09:  ES64L-G09RevD.01 24-Apr-2013

 ----------------------------------------------------------------------
 #p CAM-B3LYP/6-31G(d,p) SCRF=(PCM,Solvent=Generic,Read) NoSymm out=wfn
 ----------------------------------------------------------------------

 -------------------
 Title A1671897792_0
 -------------------
 Symbolic Z-matrix:
 Charge =  0 Multiplicity = 1

                          Input orientation:
 ---------------------------------------------------------------------
 Center     Atomic      Atomic             Coordinates (Angstroms)
 Number     Number       Type             X           Y           Z
 ---------------------------------------------------------------------
      1          8           0        2.303708    1.407910   -2.294926
      2          6           0        1.309950    1.291531   -1.583063
      3          7           0        0.286511    2.209949   -1.560656
      4          8           0        0.311557    3.208525   -2.558175
      5          6           0       -0.906346    2.029247   -0.909348
      6          8           0       -1.908768    2.654776   -1.251171
      7          7           0       -0.888392    1.084628    0.085377
      8          6           0       -2.046865    0.955569    0.956963
      9          9           0       -1.570856    0.831750    2.238246
     10          9           0       -2.734125    2.134320    1.010145
     11          6           0       -3.048014   -0.202379    0.694789
     12          9           0       -2.370780   -1.387637    0.671164
     13          8           0       -3.938297   -0.269867    1.820071
     14          6           0       -4.994704   -1.174768    1.641510
     15          9           0       -5.941945   -0.593225    0.886807
     16          9           0       -4.576303   -2.309491    1.061009
     17          9           0       -5.521023   -1.465823    2.844683
     18          6           0       -3.688772    0.036650   -0.673914
     19          9           0       -2.748075    0.095401   -1.648703
     20          9           0       -4.404630    1.176897   -0.715665
     21          9           0       -4.520918   -0.969677   -1.027051
     22          6           0        0.115718    0.146597    0.188027
     23          8           0        0.116554   -0.692522    1.081931
     24          7           0        1.126221    0.204306   -0.747629
     25          6           0        2.182137   -0.802053   -0.734552
     26          9           0        1.712871   -1.976795   -0.221706
     27          9           0        2.421385   -1.127115   -2.041603
     28          6           0        3.534242   -0.462675   -0.036400
     29          9           0        4.127196    0.626125   -0.605477
     30          8           0        4.526760   -1.501438   -0.026181
     31          6           0        4.840161   -1.994152   -1.301590
     32          9           0        3.931845   -2.921580   -1.648365
     33          9           0        4.878456   -1.015794   -2.216993
     34          9           0        6.049722   -2.582910   -1.243920
     35          6           0        3.233430   -0.112696    1.416979
     36          9           0        2.668330   -1.135405    2.090469
     37          9           0        2.404481    0.956298    1.511900
     38          9           0        4.364572    0.220991    2.087682
     39          1           0       -0.636996    3.426531   -2.670674
 ---------------------------------------------------------------------

 SCF Done:  E(RCAM-B3LYP) =  -2831.65561944     A.U. after   13 cycles

 Alpha  occ. eigenvalues --  -24.84748 -24.84542 -24.83999 -24.83928 -24.83829
 Alpha  occ. eigenvalues --  -24.83740 -24.83615 -24.83555 -24.83539 -24.83506
 Alpha  occ. eigenvalues --  -24.83505 -24.83452 -24.83363 -24.83139 -24.83052
 Alpha  occ. eigenvalues --  -24.83024 -24.82753 -24.82565 -19.33351 -19.33192
 Alpha  occ. eigenvalues --  -19.31862 -19.26256 -19.25266 -19.25031 -14.56727
 Alpha  occ. eigenvalues --  -14.54659 -14.54309 -10.59824 -10.59487 -10.56241
 Alpha  occ. eigenvalues --  -10.55684 -10.54297 -10.54287 -10.49693 -10.49392
 Alpha  occ. eigenvalues --  -10.48021 -10.47768 -10.47216  -1.43604  -1.43044
 Alpha  occ. eigenvalues --   -1.42512  -1.42219  -1.39498  -1.39435  -1.36274
 Alpha  occ. eigenvalues --   -1.35943  -1.33942  -1.33739  -1.33511  -1.33481
 Alpha  occ. eigenvalues --   -1.33382  -1.32989  -1.32925  -1.32455  -1.31934
 Alpha  occ. eigenvalues --   -1.31836  -1.26624  -1.21605  -1.20821  -1.20601
 Alpha  occ. eigenvalues --   -1.19278  -1.16502  -1.11508  -1.09749  -1.02419
 Alpha  occ. eigenvalues --   -0.94320  -0.93872  -0.86638  -0.85576  -0.83212
 Alpha  occ. eigenvalues --   -0.81239  -0.81002  -0.80185  -0.77781  -0.76815
 Alpha  occ. eigenvalues --   -0.76291  -0.74312  -0.73405  -0.72682  -0.72201
 Alpha  occ. eigenvalues --   -0.71192  -0.70883  -0.70289  -0.70052  -0.69519
 Alpha  occ. eigenvalues --   -0.69249  -0.68678  -0.68087  -0.68049  -0.67664
 Alpha  occ. eigenvalues --   -0.66844  -0.66260  -0.65844  -0.64804  -0.64319
 Alpha  occ. eigenvalues --   -0.63661  -0.60768  -0.60298  -0.58272  -0.58158
 Alpha  occ. eigenvalues --   -0.57847  -0.57544  -0.57342  -0.57093  -0.56924
 Alpha  occ. eigenvalues --   -0.56665  -0.56550  -0.56168  -0.55669  -0.55542
 Alpha  occ. eigenvalues --   -0.55401  -0.55188  -0.55089  -0.54920  -0.54727
 Alpha  occ. eigenvalues --   -0.53957  -0.53820  -0.53585  -0.53391  -0.53262
 Alpha  occ. eigenvalues --   -0.52729  -0.52583  -0.52444  -0.52354  -0.51961
 Alpha  occ. eigenvalues --   -0.51524  -0.51404  -0.51152  -0.51029  -0.50896
 Alpha  occ. eigenvalues --   -0.50668  -0.50593  -0.50063  -0.49931  -0.49623
 Alpha  occ. eigenvalues --   -0.49292  -0.49152  -0.49014  -0.46534  -0.46245
 Alpha  occ. eigenvalues --   -0.45938  -0.45071  -0.44901  -0.41745  -0.40944
 Alpha  occ. eigenvalues --   -0.40466  -0.39444  -0.37378  -0.35881
 Alpha virt. eigenvalues --   -0.01280  -0.00384   0.04497   0.05495   0.06288
 Alpha virt. eigenvalues --    0.06497   0.08481   0.10199   0.13259   0.15312
 Alpha virt. eigenvalues --    0.15986   0.16773   0.17232   0.19583   0.19743

 Mulliken charges:
               1
     1  O   -0.469621
     2  C    0.843763
     3  N   -0.331945
     4  O   -0.384597
     5  C    0.850874
     6  O   -0.505364
     7  N   -0.648260
     8  C    0.749590
     9  F   -0.258662
    10  F   -0.244298
    11  C    0.435335
    12  F   -0.254267
    13  O   -0.511060
    14  C    0.997965
    15  F   -0.244899
    16  F   -0.242138
    17  F   -0.236635
    18  C    0.817192
    19  F   -0.252977
    20  F   -0.233693
    21  F   -0.250535
    22  C    0.859822
    23  O   -0.476403
    24  N   -0.659256
    25  C    0.763214
    26  F   -0.243503
    27  F   -0.262081
    28  C    0.436724
    29  F   -0.253066
    30  O   -0.514244
    31  C    1.000358
    32  F   -0.244734
    33  F   -0.239567
    34  F   -0.240157
    35  C    0.807592
    36  F   -0.234436
    37  F   -0.254158
    38  F   -0.249876
    39  H    0.377999
 Sum of Mulliken charges =   0.00000

 Dipole moment (field-independent basis, Debye):
    X=             -2.0138    Y=              0.8190    Z=             -0.6211  Tot=              2.2609
 Quadrupole moment (field-independent basis, Debye-Ang):
   XX=           -207.5705   YY=           -200.3030   ZZ=           -204.8133
   XY=             -0.8780   XZ=              7.1375   YZ=              2.5692

 Normal termination of Gaussian 09 at Sun Mar  3 17:31:17 2024.
