 Gaussian 09, Revision D.01,
 Gaussian 09:  ES64L-G09RevD.01 24-Apr-2013

 ----------------------------------------------------------------------
 #p CAM-B3LYP/6-31G(d,p) SCRF=(PCM,Solvent=Generic,Read) NoSymm out=wfn
 ----------------------------------------------------------------------

 --------------------
 Title A1671897792_p1
 --------------------
 Symbolic Z-matrix:
 Charge =  1 Multiplicity = 2

                          Input orientation:
 ---------------------------------------------------------------------
 Center     Atomic      Atomic             Coordinates (Angstroms)
 Number     Number       Type             X           Y           Z
 ---------------------------------------------------------------------
      1          8           0        2.303708    1.407910   -2.294926
      2          6           0        1.309950    1.291531   -1.583063
      3          7           0        0.286511    2.209949   -1.560656
      4          8           0        0.311557    3.208525   -2.558175
      5          6           0       -0.906346    2.029247   -0.909348
      6          8           0       -1.908768    2.654776   -1.251171
      7          7           0       -0.888392    1.084628    0.085377
      8          6           0       -2.046865    0.955569    0.956963
      9          9           0       -1.570856    0.831750    2.238246
     10          9           0       -2.734125    2.134320    1.010145
     11          6           0       -3.048014   -0.202379    0.694789
     12          9           0       -2.370780   -1.387637    0.671164
     13          8           0       -3.938297   -0.269867    1.820071
     14          6           0       -4.994704   -1.174768    1.641510
     15          9           0       -5.941945   -0.593225    0.886807
     16          9           0       -4.576303   -2.309491    1.061009
     17          9           0       -5.521023   -1.465823    2.844683
     18          6           0       -3.688772    0.036650   -0.673914
     19          9           0       -2.748075    0.095401   -1.648703
     20          9           0       -4.404630    1.176897   -0.715665
     21          9           0       -4.520918   -0.969677   -1.027051
     22          6           0        0.115718    0.146597    0.188027
     23          8           0        0.116554   -0.692522    1.081931
     24          7           0        1.126221    0.204306   -0.747629
     25          6           0        2.182137   -0.802053   -0.734552
     26          9           0        1.712871   -1.976795   -0.221706
     27          9           0        2.421385   -1.127115   -2.041603
     28          6           0        3.534242   -0.462675   -0.036400
     29          9           0        4.127196    0.626125   -0.605477
     30          8           0        4.526760   -1.501438   -0.026181
     31          6           0        4.840161   -1.994152   -1.301590
     32          9           0        3.931845   -2.921580   -1.648365
     33          9           0        4.878456   -1.015794   -2.216993
     34          9           0        6.049722   -2.582910   -1.243920
     35          6           0        3.233430   -0.112696    1.416979
     36          9           0        2.668330   -1.135405    2.090469
     37          9           0        2.404481    0.956298    1.511900
     38          9           0        4.364572    0.220991    2.087682
     39          1           0       -0.636996    3.426531   -2.670674
 ---------------------------------------------------------------------

 SCF Done:  E(UCAM-B3LYP) =  -2831.32622207     A.U. after   29 cycles

 Alpha  occ. eigenvalues --  -24.88222 -24.88148 -24.87640 -24.87521 -24.87028
 Alpha  occ. eigenvalues --  -24.86896 -24.86588 -24.86572 -24.86517 -24.86086
 Alpha  occ. eigenvalues --  -24.86065 -24.85871 -24.85740 -24.85446 -24.85399
 Alpha  occ. eigenvalues --  -24.85283 -24.85212 -24.85146 -19.51082 -19.37750
 Alpha  occ. eigenvalues --  -19.36855 -19.35869 -19.35833 -19.31472 -14.75278
 Alpha  occ. eigenvalues --  -14.62078 -14.61435 -10.61759 -10.61669 -10.59205
 Alpha  occ. eigenvalues --  -10.58844 -10.58804 -10.58490 -10.57889 -10.57213
 Alpha  occ. eigenvalues --  -10.54118 -10.52989 -10.52767  -1.46143  -1.45499
 Alpha  occ. eigenvalues --   -1.44829  -1.44813  -1.43651  -1.43433  -1.41544
 Alpha  occ. eigenvalues --   -1.39264  -1.39258  -1.37065  -1.36393  -1.36150
 Alpha  occ. eigenvalues --   -1.36055  -1.35821  -1.35602  -1.35532  -1.34904
 Alpha  occ. eigenvalues --   -1.34878  -1.34787  -1.30960  -1.29616  -1.26338
 Alpha  occ. eigenvalues --   -1.23301  -1.23254  -1.20575  -1.17341  -1.15066
 Alpha  occ. eigenvalues --   -0.98471  -0.97988  -0.95245  -0.91841  -0.89431
 Alpha  occ. eigenvalues --   -0.87347  -0.85535  -0.85086  -0.83485  -0.82099
 Alpha  occ. eigenvalues --   -0.79898  -0.79665  -0.77486  -0.76968  -0.76374
 Alpha  occ. eigenvalues --   -0.75304  -0.75133  -0.74238  -0.73655  -0.73175
 Alpha  occ. eigenvalues --   -0.72408  -0.71989  -0.71837  -0.71700  -0.71273
 Alpha  occ. eigenvalues --   -0.70780  -0.70596  -0.69972  -0.69251  -0.68836
 Alpha  occ. eigenvalues --   -0.68640  -0.67730  -0.66956  -0.65990  -0.64576
 Alpha  occ. eigenvalues --   -0.64340  -0.63404  -0.62825  -0.61721  -0.60950
 Alpha  occ. eigenvalues --   -0.60518  -0.60328  -0.60180  -0.59896  -0.59771
 Alpha  occ. eigenvalues --   -0.59478  -0.59341  -0.58730  -0.58363  -0.58337
 Alpha  occ. eigenvalues --   -0.58090  -0.57760  -0.57520  -0.57166  -0.57089
 Alpha  occ. eigenvalues --   -0.56195  -0.55914  -0.55595  -0.55438  -0.55282
 Alpha  occ. eigenvalues --   -0.55100  -0.54717  -0.54500  -0.54030  -0.53839
 Alpha  occ. eigenvalues --   -0.53745  -0.53683  -0.53466  -0.53094  -0.52633
 Alpha  occ. eigenvalues --   -0.52442  -0.52259  -0.52048  -0.51743  -0.51674
 Alpha  occ. eigenvalues --   -0.51364  -0.50241  -0.49511  -0.49220  -0.48319
 Alpha  occ. eigenvalues --   -0.47805  -0.47111  -0.45796  -0.44279
 Alpha virt. eigenvalues --   -0.10907  -0.08743  -0.07410  -0.00385   0.00935
 Alpha virt. eigenvalues --    0.01869   0.03691   0.04830   0.05850   0.08680
 Alpha virt. eigenvalues --    0.10759   0.11257   0.12356   0.12743   0.15703

  Beta  occ. eigenvalues --  -24.88218 -24.88142 -24.87640 -24.87520 -24.87024
  Beta  occ. eigenvalues --  -24.86896 -24.86587 -24.86567 -24.86516 -24.86086
  Beta  occ. eigenvalues --  -24.86065 -24.85871 -24.85740 -24.85446 -24.85399
  Beta  occ. eigenvalues --  -24.85283 -24.85212 -24.85146 -19.50093 -19.37332
  Beta  occ. eigenvalues --  -19.36301 -19.35868 -19.35833 -19.31449 -14.74121
  Beta  occ. eigenvalues --  -14.62060 -14.61463 -10.61758 -10.61669 -10.59205
  Beta  occ. eigenvalues --  -10.58846 -10.58804 -10.58490 -10.58058 -10.57415
  Beta  occ. eigenvalues --  -10.54130 -10.52988 -10.52768  -1.46140  -1.45497
  Beta  occ. eigenvalues --   -1.44829  -1.44812  -1.43622  -1.43426  -1.39705
  Beta  occ. eigenvalues --   -1.39255  -1.39251  -1.37056  -1.36389  -1.36144
  Beta  occ. eigenvalues --   -1.36049  -1.35816  -1.35602  -1.35532  -1.34903
  Beta  occ. eigenvalues --   -1.34877  -1.34785  -1.30285  -1.28933  -1.25779
  Beta  occ. eigenvalues --   -1.23299  -1.23251  -1.19604  -1.17137  -1.13597
  Beta  occ. eigenvalues --   -0.98389  -0.97895  -0.94862  -0.91806  -0.89050
  Beta  occ. eigenvalues --   -0.87216  -0.85481  -0.85022  -0.83483  -0.81836
  Beta  occ. eigenvalues --   -0.79811  -0.79323  -0.77088  -0.76661  -0.75750
  Beta  occ. eigenvalues --   -0.75225  -0.74253  -0.73849  -0.73336  -0.72692
  Beta  occ. eigenvalues --   -0.72314  -0.71908  -0.71795  -0.71607  -0.71251
  Beta  occ. eigenvalues --   -0.70714  -0.70560  -0.69757  -0.69182  -0.68790
  Beta  occ. eigenvalues --   -0.68556  -0.66823  -0.66476  -0.64340  -0.63860
  Beta  occ. eigenvalues --   -0.63694  -0.63201  -0.62657  -0.61631  -0.60551
  Beta  occ. eigenvalues --   -0.60402  -0.60122  -0.59952  -0.59851  -0.59456
  Beta  occ. eigenvalues --   -0.59289  -0.58879  -0.58336  -0.58275  -0.58084
  Beta  occ. eigenvalues --   -0.58009  -0.57571  -0.57210  -0.57101  -0.56147
  Beta  occ. eigenvalues --   -0.55989  -0.55722  -0.55534  -0.55297  -0.55120
  Beta  occ. eigenvalues --   -0.54958  -0.54703  -0.54305  -0.53848  -0.53790
  Beta  occ. eigenvalues --   -0.53714  -0.53579  -0.53418  -0.53009  -0.52518
  Beta  occ. eigenvalues --   -0.52255  -0.52034  -0.51809  -0.51698  -0.50801
  Beta  occ. eigenvalues --   -0.49778  -0.49129  -0.49022  -0.48005  -0.47703
  Beta  occ. eigenvalues --   -0.46698  -0.45134  -0.44173
  Beta virt. eigenvalues --   -0.29973  -0.09857  -0.07327  -0.06089   0.00396
  Beta virt. eigenvalues --    0.00979   0.01884   0.03763   0.04925   0.06266
  Beta virt. eigenvalues --    0.08715   0.10830   0.11619   0.12366   0.12815

 Mulliken charges and spin densities:
               1          2
     1  O   -0.339019   0.220705
     2  C    0.903968  -0.113955
     3  N   -0.225978   0.474783
     4  O   -0.139525   0.339388
     5  C    0.905224  -0.093208
     6  O   -0.390057   0.166261
     7  N   -0.649614   0.010741
     8  C    0.752361  -0.000622
     9  F   -0.242339   0.000408
    10  F   -0.234378   0.001083
    11  C    0.444298   0.000251
    12  F   -0.248286   0.000256
    13  O   -0.504797   0.000105
    14  C    1.002807   0.000036
    15  F   -0.242104   0.000006
    16  F   -0.239785   0.000015
    17  F   -0.231758   0.000022
    18  C    0.817979  -0.000088
    19  F   -0.258234   0.000941
    20  F   -0.229446  -0.000003
    21  F   -0.241634   0.000073
    22  C    0.889312  -0.006487
    23  O   -0.420184   0.009061
    24  N   -0.665221  -0.006821
    25  C    0.765026  -0.000475
    26  F   -0.227684   0.000154
    27  F   -0.252116   0.000852
    28  C    0.438525   0.000043
    29  F   -0.251753   0.000926
    30  O   -0.502306   0.000441
    31  C    1.004922  -0.000029
    32  F   -0.242354   0.000056
    33  F   -0.240268  -0.000002
    34  F   -0.234167   0.000002
    35  C    0.812602  -0.000033
    36  F   -0.228913   0.000031
    37  F   -0.257723   0.000004
    38  F   -0.241524   0.000008
    39  H    0.444147  -0.004926
 Sum of Mulliken charges =   1.00000   1.00000

 Dipole moment (field-independent basis, Debye):
    X=             -1.0231    Y=              9.8132    Z=             -7.5193  Tot=             12.4051
 Quadrupole moment (field-independent basis, Debye-Ang):
   XX=           -189.2117   YY=           -169.3433   ZZ=           -183.3710
   XY=             -1.8211   XZ=              2.5034   YZ=            -16.9290

 Normal termination of Gaussian 09 at Sun Mar  3 17:33:03 2024.
