 Gaussian 09, Revision D.01,
 Gaussian 09:  ES64L-G09RevD.01 24-Apr-2013

 ----------------------------------------------------------------------
 #p CAM-B3LYP/6-31G(d,p) SCRF=(PCM,Solvent=Generic,Read) NoSymm out=wfn
 ----------------------------------------------------------------------

 --------------------
 Title A1557670722_p1
 --------------------
 Symbolic Z-matrix:
 Charge =  1 Multiplicity = 2

                          Input orientation:
 ---------------------------------------------------------------------
 Center     Atomic      Atomic             Coordinates (Angstroms)
 Number     Number       Type             X           Y           Z
 ---------------------------------------------------------------------
      1          6           0       -2.303845    5.603212   -0.657529
      2          6           0       -1.623341    4.878449    0.492678
      3          6           0       -1.186591    3.471499    0.087556
      4          6           0       -0.502129    2.745690    1.250355
      5          7           0       -0.075609    1.397383    0.875382
      6          6           0       -1.004371    0.381368    0.942021
      7          8           0       -2.141107    0.558829    1.382130
      8          7           0       -0.594513   -0.835075    0.438555
      9          6           0       -1.586139   -1.907903    0.341338
     10          6           0       -2.421957   -1.794316   -0.938582
     11          6           0       -3.390289   -2.962166   -1.133009
     12          6           0       -4.482693   -3.025375   -0.076833
     13          6           0        0.642501   -1.026287   -0.140920
     14          8           0        0.865454   -2.012494   -0.837799
     15          7           0        1.579195   -0.057081    0.083354
     16          6           0        2.936064   -0.214205   -0.434246
     17          9           0        3.733355    0.631697    0.291370
     18          9           0        2.973496    0.240474   -1.716671
     19          6           0        3.615120   -1.609722   -0.356003
     20          9           0        3.149714   -2.417362   -1.352335
     21          8           0        3.266099   -2.225240    0.894913
     22          6           0        3.962416   -3.424376    1.120645
     23          9           0        4.025766   -4.182215    0.017020
     24          9           0        3.320617   -4.109161    2.085991
     25          9           0        5.200330   -3.135142    1.554659
     26          6           0        5.111011   -1.360871   -0.602648
     27          9           0        5.345640   -0.638927   -1.719465
     28          9           0        5.697705   -0.718420    0.433169
     29          9           0        5.783549   -2.529010   -0.754541
     30          6           0        1.171364    1.238279    0.302479
     31          8           0        1.850169    2.215538   -0.013455
     32          1           0       -3.197967    5.064199   -0.986703
     33          1           0       -1.628087    5.703073   -1.512936
     34          1           0       -2.608009    6.607329   -0.345872
     35          1           0       -2.314067    4.823789    1.342128
     36          1           0       -0.752663    5.459193    0.818730
     37          1           0       -0.503435    3.529353   -0.768612
     38          1           0       -2.058759    2.896808   -0.247569
     39          1           0       -1.187922    2.680530    2.103559
     40          1           0        0.370700    3.318439    1.586212
     41          1           0       -1.071069   -2.875629    0.366168
     42          1           0       -2.233554   -1.867238    1.224136
     43          1           0       -2.979028   -0.849393   -0.939631
     44          1           0       -1.752614   -1.754495   -1.806960
     45          1           0       -2.836939   -3.908364   -1.143376
     46          1           0       -3.863120   -2.860956   -2.117196
     47          1           0       -4.072075   -3.246439    0.912629
     48          1           0       -5.031165   -2.079771   -0.021412
     49          1           0       -5.197210   -3.817500   -0.322871
 ---------------------------------------------------------------------

 SCF Done:  E(UCAM-B3LYP) =  -1945.25248660     A.U. after   39 cycles

 Alpha  occ. eigenvalues --  -24.86665 -24.86517 -24.85646 -24.85485 -24.85392
 Alpha  occ. eigenvalues --  -24.85191 -24.84762 -24.84761 -24.84680 -19.35772
 Alpha  occ. eigenvalues --  -19.34620 -19.30641 -19.30227 -14.64516 -14.58669
 Alpha  occ. eigenvalues --  -14.58504 -10.61665 -10.57556 -10.57289 -10.53780
 Alpha  occ. eigenvalues --  -10.51996 -10.51751 -10.51570 -10.39300 -10.36306
 Alpha  occ. eigenvalues --  -10.33002 -10.30332 -10.29927 -10.28473 -10.27722
 Alpha  occ. eigenvalues --  -10.26740  -1.45179  -1.43873  -1.42359  -1.37820
 Alpha  occ. eigenvalues --   -1.35829  -1.35408  -1.35122  -1.34420  -1.33943
 Alpha  occ. eigenvalues --   -1.30691  -1.25562  -1.24267  -1.23089  -1.17491
 Alpha  occ. eigenvalues --   -1.15002  -1.13434  -0.97100  -0.95750  -0.93573
 Alpha  occ. eigenvalues --   -0.90138  -0.89213  -0.88364  -0.84892  -0.83521
 Alpha  occ. eigenvalues --   -0.83187  -0.81027  -0.79722  -0.77932  -0.77026
 Alpha  occ. eigenvalues --   -0.75467  -0.74327  -0.72775  -0.72456  -0.72148
 Alpha  occ. eigenvalues --   -0.71260  -0.70470  -0.70084  -0.69574  -0.68916
 Alpha  occ. eigenvalues --   -0.68086  -0.67762  -0.66306  -0.63981  -0.63317
 Alpha  occ. eigenvalues --   -0.62651  -0.61873  -0.61317  -0.60942  -0.60177
 Alpha  occ. eigenvalues --   -0.59478  -0.59366  -0.58857  -0.58215  -0.57977
 Alpha  occ. eigenvalues --   -0.57686  -0.57111  -0.56904  -0.56087  -0.55936
 Alpha  occ. eigenvalues --   -0.55225  -0.54976  -0.54690  -0.54186  -0.53919
 Alpha  occ. eigenvalues --   -0.53741  -0.53641  -0.52897  -0.52206  -0.51930
 Alpha  occ. eigenvalues --   -0.51608  -0.51473  -0.51247  -0.50969  -0.50621
 Alpha  occ. eigenvalues --   -0.49067  -0.48497  -0.48071  -0.47487  -0.47278
 Alpha  occ. eigenvalues --   -0.47155  -0.45955  -0.45388  -0.44580  -0.44222
 Alpha  occ. eigenvalues --   -0.43965  -0.43056  -0.42557  -0.42449  -0.42285
 Alpha  occ. eigenvalues --   -0.41163
 Alpha virt. eigenvalues --   -0.06644  -0.05102   0.02359   0.03804   0.05438
 Alpha virt. eigenvalues --    0.08687   0.10381   0.11012   0.11466   0.12205
 Alpha virt. eigenvalues --    0.12661   0.13947   0.14297   0.14627   0.14793

  Beta  occ. eigenvalues --  -24.86654 -24.86519 -24.85646 -24.85485 -24.85392
  Beta  occ. eigenvalues --  -24.85191 -24.84762 -24.84759 -24.84680 -19.35771
  Beta  occ. eigenvalues --  -19.33975 -19.30413 -19.30252 -14.63418 -14.58553
  Beta  occ. eigenvalues --  -14.58255 -10.61665 -10.57556 -10.57288 -10.53991
  Beta  occ. eigenvalues --  -10.51996 -10.51853 -10.51651 -10.39254 -10.36290
  Beta  occ. eigenvalues --  -10.32836 -10.30271 -10.29900 -10.28462 -10.27694
  Beta  occ. eigenvalues --  -10.26738  -1.45178  -1.43871  -1.42353  -1.37814
  Beta  occ. eigenvalues --   -1.35822  -1.35407  -1.35121  -1.34419  -1.33942
  Beta  occ. eigenvalues --   -1.29884  -1.24809  -1.23896  -1.23069  -1.16423
  Beta  occ. eigenvalues --   -1.14162  -1.12717  -0.96923  -0.95400  -0.93319
  Beta  occ. eigenvalues --   -0.89994  -0.88992  -0.88206  -0.84793  -0.83249
  Beta  occ. eigenvalues --   -0.83007  -0.80802  -0.79485  -0.77810  -0.76739
  Beta  occ. eigenvalues --   -0.75425  -0.74202  -0.72745  -0.72417  -0.71486
  Beta  occ. eigenvalues --   -0.71029  -0.70452  -0.70002  -0.69207  -0.68795
  Beta  occ. eigenvalues --   -0.67998  -0.67017  -0.65655  -0.63321  -0.62776
  Beta  occ. eigenvalues --   -0.62576  -0.61286  -0.60610  -0.60130  -0.59584
  Beta  occ. eigenvalues --   -0.59285  -0.59026  -0.58784  -0.58130  -0.57855
  Beta  occ. eigenvalues --   -0.57534  -0.57072  -0.56809  -0.55942  -0.55857
  Beta  occ. eigenvalues --   -0.55015  -0.54645  -0.54114  -0.53972  -0.53787
  Beta  occ. eigenvalues --   -0.53601  -0.53388  -0.52876  -0.52197  -0.51913
  Beta  occ. eigenvalues --   -0.51438  -0.51237  -0.50980  -0.50614  -0.50077
  Beta  occ. eigenvalues --   -0.48743  -0.47747  -0.47442  -0.47154  -0.46865
  Beta  occ. eigenvalues --   -0.45827  -0.45131  -0.44394  -0.43857  -0.43263
  Beta  occ. eigenvalues --   -0.43016  -0.42437  -0.42307  -0.41979  -0.39682
  Beta virt. eigenvalues --   -0.28064  -0.06004  -0.03992   0.03108   0.03867
  Beta virt. eigenvalues --    0.05784   0.08987   0.10527   0.11236   0.11735
  Beta virt. eigenvalues --    0.12296   0.12755   0.14066   0.14343   0.14642

 Mulliken charges and spin densities:
               1          2
     1  C   -0.329395   0.012853
     2  C   -0.192727   0.014897
     3  C   -0.202598   0.087553
     4  C   -0.100428   0.016643
     5  N   -0.461507   0.496550
     6  C    0.856059  -0.060819
     7  O   -0.457417  -0.005053
     8  N   -0.539317   0.188576
     9  C   -0.077966   0.003836
    10  C   -0.198105   0.030679
    11  C   -0.191075   0.006196
    12  C   -0.328457   0.001032
    13  C    0.863748  -0.045588
    14  O   -0.432846   0.089829
    15  N   -0.641152  -0.013431
    16  C    0.803958  -0.001449
    17  F   -0.264759   0.002284
    18  F   -0.242681  -0.000460
    19  C    0.410739  -0.000061
    20  F   -0.248052   0.000493
    21  O   -0.521558   0.000380
    22  C    0.999350  -0.000042
    23  F   -0.234635  -0.000003
    24  F   -0.237815  -0.000001
    25  F   -0.240435   0.000025
    26  C    0.821990  -0.000021
    27  F   -0.238880   0.000005
    28  F   -0.244444   0.000082
    29  F   -0.253940  -0.000005
    30  C    0.876332  -0.120951
    31  O   -0.370379   0.253088
    32  H    0.122918  -0.000508
    33  H    0.123466  -0.000527
    34  H    0.133573   0.007384
    35  H    0.131192  -0.000287
    36  H    0.130724  -0.000676
    37  H    0.156372  -0.001477
    38  H    0.155907  -0.003220
    39  H    0.220350   0.017032
    40  H    0.212443   0.010104
    41  H    0.183997   0.002930
    42  H    0.185959   0.006612
    43  H    0.131417  -0.001122
    44  H    0.134292   0.000033
    45  H    0.118877  -0.000290
    46  H    0.126594   0.005444
    47  H    0.111262   0.000828
    48  H    0.116598  -0.000073
    49  H    0.122450   0.000695
 Sum of Mulliken charges =   1.00000   1.00000

 Dipole moment (field-independent basis, Debye):
    X=             -3.7503    Y=              4.7278    Z=              2.8270  Tot=              6.6639
 Quadrupole moment (field-independent basis, Debye-Ang):
   XX=           -163.8620   YY=           -134.7417   ZZ=           -166.0242
   XY=             -2.1927   XZ=              5.5272   YZ=              4.2965

 Normal termination of Gaussian 09 at Sun Mar  3 17:37:42 2024.
