 Gaussian 09, Revision D.01,
 Gaussian 09:  ES64L-G09RevD.01 24-Apr-2013

 ----------------------------------------------------------------------
 #p CAM-B3LYP/6-31G(d,p) SCRF=(PCM,Solvent=Generic,Read) NoSymm out=wfn
 ----------------------------------------------------------------------

 -------------------
 Title A1557670722_0
 -------------------
 Symbolic Z-matrix:
 Charge =  0 Multiplicity = 1

                          Input orientation:
 ---------------------------------------------------------------------
 Center     Atomic      Atomic             Coordinates (Angstroms)
 Number     Number       Type             X           Y           Z
 ---------------------------------------------------------------------
      1          6           0       -2.303845    5.603212   -0.657529
      2          6           0       -1.623341    4.878449    0.492678
      3          6           0       -1.186591    3.471499    0.087556
      4          6           0       -0.502129    2.745690    1.250355
      5          7           0       -0.075609    1.397383    0.875382
      6          6           0       -1.004371    0.381368    0.942021
      7          8           0       -2.141107    0.558829    1.382130
      8          7           0       -0.594513   -0.835075    0.438555
      9          6           0       -1.586139   -1.907903    0.341338
     10          6           0       -2.421957   -1.794316   -0.938582
     11          6           0       -3.390289   -2.962166   -1.133009
     12          6           0       -4.482693   -3.025375   -0.076833
     13          6           0        0.642501   -1.026287   -0.140920
     14          8           0        0.865454   -2.012494   -0.837799
     15          7           0        1.579195   -0.057081    0.083354
     16          6           0        2.936064   -0.214205   -0.434246
     17          9           0        3.733355    0.631697    0.291370
     18          9           0        2.973496    0.240474   -1.716671
     19          6           0        3.615120   -1.609722   -0.356003
     20          9           0        3.149714   -2.417362   -1.352335
     21          8           0        3.266099   -2.225240    0.894913
     22          6           0        3.962416   -3.424376    1.120645
     23          9           0        4.025766   -4.182215    0.017020
     24          9           0        3.320617   -4.109161    2.085991
     25          9           0        5.200330   -3.135142    1.554659
     26          6           0        5.111011   -1.360871   -0.602648
     27          9           0        5.345640   -0.638927   -1.719465
     28          9           0        5.697705   -0.718420    0.433169
     29          9           0        5.783549   -2.529010   -0.754541
     30          6           0        1.171364    1.238279    0.302479
     31          8           0        1.850169    2.215538   -0.013455
     32          1           0       -3.197967    5.064199   -0.986703
     33          1           0       -1.628087    5.703073   -1.512936
     34          1           0       -2.608009    6.607329   -0.345872
     35          1           0       -2.314067    4.823789    1.342128
     36          1           0       -0.752663    5.459193    0.818730
     37          1           0       -0.503435    3.529353   -0.768612
     38          1           0       -2.058759    2.896808   -0.247569
     39          1           0       -1.187922    2.680530    2.103559
     40          1           0        0.370700    3.318439    1.586212
     41          1           0       -1.071069   -2.875629    0.366168
     42          1           0       -2.233554   -1.867238    1.224136
     43          1           0       -2.979028   -0.849393   -0.939631
     44          1           0       -1.752614   -1.754495   -1.806960
     45          1           0       -2.836939   -3.908364   -1.143376
     46          1           0       -3.863120   -2.860956   -2.117196
     47          1           0       -4.072075   -3.246439    0.912629
     48          1           0       -5.031165   -2.079771   -0.021412
     49          1           0       -5.197210   -3.817500   -0.322871
 ---------------------------------------------------------------------

 SCF Done:  E(RCAM-B3LYP) =  -1945.56479141     A.U. after   13 cycles

 Alpha  occ. eigenvalues --  -24.83695 -24.83465 -24.83371 -24.83312 -24.82677
 Alpha  occ. eigenvalues --  -24.82627 -24.82506 -24.82421 -24.81770 -19.33061
 Alpha  occ. eigenvalues --  -19.23106 -19.23071 -19.22364 -14.51735 -14.49118
 Alpha  occ. eigenvalues --  -14.49098 -10.59544 -10.55245 -10.52863 -10.48868
 Alpha  occ. eigenvalues --  -10.44748 -10.44710 -10.43495 -10.30841 -10.30784
 Alpha  occ. eigenvalues --  -10.25920 -10.25866 -10.25522 -10.25481 -10.24475
 Alpha  occ. eigenvalues --  -10.24449  -1.43158  -1.41585  -1.38470  -1.34924
 Alpha  occ. eigenvalues --   -1.33428  -1.33205  -1.32584  -1.32021  -1.31394
 Alpha  occ. eigenvalues --   -1.21497  -1.20413  -1.16589  -1.16041  -1.08521
 Alpha  occ. eigenvalues --   -1.05998  -1.04566  -0.93149  -0.89336  -0.88394
 Alpha  occ. eigenvalues --   -0.84759  -0.82682  -0.82455  -0.81444  -0.78184
 Alpha  occ. eigenvalues --   -0.77207  -0.75618  -0.74094  -0.73219  -0.72531
 Alpha  occ. eigenvalues --   -0.71160  -0.70483  -0.70318  -0.69337  -0.68514
 Alpha  occ. eigenvalues --   -0.67393  -0.66904  -0.66265  -0.65663  -0.65416
 Alpha  occ. eigenvalues --   -0.64848  -0.60813  -0.59960  -0.58949  -0.57353
 Alpha  occ. eigenvalues --   -0.57070  -0.56160  -0.56000  -0.55690  -0.55478
 Alpha  occ. eigenvalues --   -0.55114  -0.54721  -0.54351  -0.54041  -0.54020
 Alpha  occ. eigenvalues --   -0.53364  -0.53141  -0.52799  -0.52522  -0.51928
 Alpha  occ. eigenvalues --   -0.51648  -0.51450  -0.51032  -0.50393  -0.50190
 Alpha  occ. eigenvalues --   -0.50164  -0.49679  -0.49572  -0.48950  -0.48703
 Alpha  occ. eigenvalues --   -0.48383  -0.48256  -0.47703  -0.46197  -0.45741
 Alpha  occ. eigenvalues --   -0.45424  -0.44058  -0.43595  -0.42150  -0.41600
 Alpha  occ. eigenvalues --   -0.40767  -0.40313  -0.39586  -0.39426  -0.39093
 Alpha  occ. eigenvalues --   -0.38669  -0.38230  -0.37588  -0.35242  -0.34895
 Alpha  occ. eigenvalues --   -0.34256
 Alpha virt. eigenvalues --    0.01378   0.02910   0.07309   0.08104   0.11384
 Alpha virt. eigenvalues --    0.13579   0.14389   0.16400   0.16636   0.17088
 Alpha virt. eigenvalues --    0.17413   0.17730   0.18087   0.18565   0.18591

 Mulliken charges:
               1
     1  C   -0.322718
     2  C   -0.183886
     3  C   -0.180210
     4  C   -0.057731
     5  N   -0.576905
     6  C    0.825657
     7  O   -0.529677
     8  N   -0.576480
     9  C   -0.052385
    10  C   -0.185181
    11  C   -0.186946
    12  C   -0.323338
    13  C    0.825148
    14  O   -0.507042
    15  N   -0.636382
    16  C    0.797891
    17  F   -0.274238
    18  F   -0.256457
    19  C    0.412394
    20  F   -0.253227
    21  O   -0.518334
    22  C    0.994959
    23  F   -0.238116
    24  F   -0.241007
    25  F   -0.244779
    26  C    0.814496
    27  F   -0.242546
    28  F   -0.247835
    29  F   -0.260313
    30  C    0.824942
    31  O   -0.502960
    32  H    0.107551
    33  H    0.108412
    34  H    0.105176
    35  H    0.103544
    36  H    0.104289
    37  H    0.115698
    38  H    0.112157
    39  H    0.147824
    40  H    0.145093
    41  H    0.144430
    42  H    0.149320
    43  H    0.112791
    44  H    0.113353
    45  H    0.103570
    46  H    0.104615
    47  H    0.107397
    48  H    0.110909
    49  H    0.107077
 Sum of Mulliken charges =   0.00000

 Dipole moment (field-independent basis, Debye):
    X=             -2.8002    Y=              0.0185    Z=              1.1959  Tot=              3.0450
 Quadrupole moment (field-independent basis, Debye-Ang):
   XX=           -185.2535   YY=           -170.9759   ZZ=           -174.5130
   XY=             -0.0849   XZ=              6.5978   YZ=             -0.2374

 Normal termination of Gaussian 09 at Sun Mar  3 17:35:55 2024.
