 Gaussian 09, Revision D.01,
 Gaussian 09:  ES64L-G09RevD.01 24-Apr-2013

 ----------------------------------------------------------------------
 #p CAM-B3LYP/6-31G(d,p) SCRF=(PCM,Solvent=Generic,Read) NoSymm out=wfn
 ----------------------------------------------------------------------

 -----------------
 Title LDAI1C2_pos
 -----------------
 Symbolic Z-matrix:
 Charge =  1 Multiplicity = 2

                          Input orientation:
 ---------------------------------------------------------------------
 Center     Atomic      Atomic             Coordinates (Angstroms)
 Number     Number       Type             X           Y           Z
 ---------------------------------------------------------------------
      1          6           0       -0.057206   -4.408830    2.091100
      2          7           0        0.042689   -2.985446    1.818055
      3          6           0        1.117482   -2.296471    2.334962
      4          8           0        2.007966   -2.860004    2.974686
      5          7           0        1.146673   -0.937803    2.092447
      6          6           0        2.219842   -0.154356    2.704457
      7          6           0        3.530162   -0.191940    1.906732
      8          6           0        3.438364    0.528529    0.556336
      9          6           0        4.789652    0.571431   -0.153062
     10          9           0        5.684014    1.188953    0.664639
     11          9           0        5.241287   -0.701616   -0.322454
     12          6           0        4.707310    1.288437   -1.523780
     13          9           0        3.720694    0.691512   -2.259348
     14          9           0        4.298961    2.576661   -1.376497
     15          8           0        5.834244    1.284159   -2.364244
     16          6           0        6.959715    1.775843   -1.699371
     17          9           0        6.667282    2.843084   -0.936837
     18          9           0        7.870930    2.149201   -2.620672
     19          9           0        7.500812    0.804558   -0.943722
     20          6           0        0.236431   -0.294315    1.281379
     21          8           0        0.281288    0.924033    1.093275
     22          7           0       -0.719464   -1.085443    0.680772
     23          6           0       -1.679047   -0.445532   -0.219828
     24          6           0       -2.909054    0.062388    0.541338
     25          6           0       -3.800749    1.016276   -0.264477
     26          6           0       -4.390235    0.403222   -1.533816
     27          9           0       -3.373891    0.086517   -2.383310
     28          9           0       -4.998123   -0.771609   -1.209085
     29          6           0       -5.392263    1.337684   -2.241797
     30          9           0       -4.764635    2.488237   -2.598601
     31          9           0       -5.855449    0.759871   -3.375941
     32          8           0       -6.470406    1.686314   -1.404881
     33          6           0       -7.514349    2.198203   -2.182488
     34          9           0       -7.080080    3.086189   -3.093926
     35          9           0       -8.177271    1.197409   -2.790332
     36          9           0       -8.376360    2.830296   -1.357761
     37          6           0       -0.877791   -2.427420    0.957819
     38          8           0       -1.791514   -3.090385    0.462954
     39          1           0        0.413128   -4.665079    3.044918
     40          1           0       -1.103608   -4.727305    2.121948
     41          1           0        0.452553   -4.948352    1.286517
     42          1           0        2.410134   -0.553718    3.708346
     43          1           0        1.898101    0.884522    2.841069
     44          1           0        3.843583   -1.230219    1.746500
     45          1           0        4.308764    0.284885    2.514582
     46          1           0        2.715667    0.008483   -0.081387
     47          1           0        3.080290    1.551696    0.718292
     48          1           0       -1.187233    0.386925   -0.736489
     49          1           0       -1.980401   -1.167425   -0.986491
     50          1           0       -2.584915    0.593466    1.445544
     51          1           0       -3.502463   -0.791864    0.889935
     52          1           0       -4.612837    1.338476    0.397885
     53          1           0       -3.218677    1.907671   -0.527062
 ---------------------------------------------------------------------

 SCF Done:  E(UCAM-B3LYP) =  -2555.89184027     A.U. after   66 cycles

 Alpha  occ. eigenvalues --  -24.84550 -24.84458 -24.84058 -24.83994 -24.83958
 Alpha  occ. eigenvalues --  -24.83843 -24.83757 -24.83593 -24.83354 -24.83306
 Alpha  occ. eigenvalues --  -24.82993 -24.82513 -24.82510 -24.82342 -19.33638
 Alpha  occ. eigenvalues --  -19.33594 -19.33026 -19.32565 -19.29618 -14.66492
 Alpha  occ. eigenvalues --  -14.57388 -14.56168 -10.60246 -10.60219 -10.54054
 Alpha  occ. eigenvalues --  -10.53980 -10.52630 -10.52483 -10.50169 -10.48422
 Alpha  occ. eigenvalues --  -10.48128 -10.39197 -10.36425 -10.35514 -10.31369
 Alpha  occ. eigenvalues --  -10.31348 -10.31180 -10.31116  -1.43868  -1.43804
 Alpha  occ. eigenvalues --   -1.40197  -1.39864  -1.37753  -1.37590  -1.34437
 Alpha  occ. eigenvalues --   -1.34244  -1.33659  -1.33497  -1.32909  -1.32542
 Alpha  occ. eigenvalues --   -1.31664  -1.31473  -1.30439  -1.25082  -1.23456
 Alpha  occ. eigenvalues --   -1.21799  -1.21765  -1.18163  -1.13667  -1.11911
 Alpha  occ. eigenvalues --   -0.95399  -0.94361  -0.92777  -0.91113  -0.90515
 Alpha  occ. eigenvalues --   -0.88148  -0.86592  -0.84175  -0.82593  -0.81122
 Alpha  occ. eigenvalues --   -0.80478  -0.79615  -0.77052  -0.76449  -0.74081
 Alpha  occ. eigenvalues --   -0.73318  -0.72497  -0.72211  -0.71709  -0.71447
 Alpha  occ. eigenvalues --   -0.71206  -0.71189  -0.70803  -0.69103  -0.68699
 Alpha  occ. eigenvalues --   -0.68210  -0.67958  -0.67395  -0.65566  -0.65260
 Alpha  occ. eigenvalues --   -0.64323  -0.63491  -0.63029  -0.62708  -0.62543
 Alpha  occ. eigenvalues --   -0.61869  -0.61614  -0.61255  -0.60895  -0.60219
 Alpha  occ. eigenvalues --   -0.59103  -0.58214  -0.58073  -0.57522  -0.57092
 Alpha  occ. eigenvalues --   -0.56747  -0.56650  -0.56487  -0.56228  -0.55850
 Alpha  occ. eigenvalues --   -0.55467  -0.55077  -0.54970  -0.54674  -0.54165
 Alpha  occ. eigenvalues --   -0.53850  -0.53793  -0.53603  -0.53239  -0.52549
 Alpha  occ. eigenvalues --   -0.52488  -0.52259  -0.51840  -0.51592  -0.51442
 Alpha  occ. eigenvalues --   -0.51331  -0.51143  -0.50942  -0.50630  -0.50450
 Alpha  occ. eigenvalues --   -0.50335  -0.49909  -0.49782  -0.49611  -0.49022
 Alpha  occ. eigenvalues --   -0.48738  -0.47762  -0.47708  -0.46858  -0.46788
 Alpha  occ. eigenvalues --   -0.46216  -0.46090  -0.45345  -0.44989  -0.43747
 Alpha  occ. eigenvalues --   -0.43152  -0.42385  -0.42048  -0.41557
 Alpha virt. eigenvalues --   -0.05586  -0.05164   0.05944   0.08590   0.09206
 Alpha virt. eigenvalues --    0.09699   0.09948   0.10184   0.10511   0.11232
 Alpha virt. eigenvalues --    0.12067   0.12330   0.13377   0.14384   0.14842

  Beta  occ. eigenvalues --  -24.84550 -24.84458 -24.84058 -24.83994 -24.83958
  Beta  occ. eigenvalues --  -24.83843 -24.83757 -24.83593 -24.83354 -24.83306
  Beta  occ. eigenvalues --  -24.82992 -24.82513 -24.82510 -24.82342 -19.33638
  Beta  occ. eigenvalues --  -19.33593 -19.32514 -19.32216 -19.29401 -14.65157
  Beta  occ. eigenvalues --  -14.57216 -14.56171 -10.60246 -10.60219 -10.54053
  Beta  occ. eigenvalues --  -10.53980 -10.52793 -10.52673 -10.50234 -10.48419
  Beta  occ. eigenvalues --  -10.48128 -10.39195 -10.36416 -10.35508 -10.31364
  Beta  occ. eigenvalues --  -10.31328 -10.31179 -10.31108  -1.43868  -1.43804
  Beta  occ. eigenvalues --   -1.40197  -1.39864  -1.37752  -1.37589  -1.34437
  Beta  occ. eigenvalues --   -1.34244  -1.33659  -1.33497  -1.32908  -1.32542
  Beta  occ. eigenvalues --   -1.31663  -1.31473  -1.29311  -1.24375  -1.22986
  Beta  occ. eigenvalues --   -1.21798  -1.21765  -1.16248  -1.12913  -1.11650
  Beta  occ. eigenvalues --   -0.95279  -0.94313  -0.92458  -0.90942  -0.90330
  Beta  occ. eigenvalues --   -0.87887  -0.86561  -0.84037  -0.82449  -0.80877
  Beta  occ. eigenvalues --   -0.80354  -0.79544  -0.76997  -0.76426  -0.74019
  Beta  occ. eigenvalues --   -0.73151  -0.72474  -0.72111  -0.71616  -0.71374
  Beta  occ. eigenvalues --   -0.71191  -0.70873  -0.68892  -0.68571  -0.68301
  Beta  occ. eigenvalues --   -0.68088  -0.67770  -0.67355  -0.65560  -0.65190
  Beta  occ. eigenvalues --   -0.63756  -0.63171  -0.62696  -0.62297  -0.62093
  Beta  occ. eigenvalues --   -0.61803  -0.61359  -0.60942  -0.60243  -0.59540
  Beta  occ. eigenvalues --   -0.58764  -0.58208  -0.58048  -0.57474  -0.57019
  Beta  occ. eigenvalues --   -0.56705  -0.56603  -0.56418  -0.55962  -0.55259
  Beta  occ. eigenvalues --   -0.55071  -0.54913  -0.54622  -0.54260  -0.54044
  Beta  occ. eigenvalues --   -0.53807  -0.53775  -0.53581  -0.53131  -0.52539
  Beta  occ. eigenvalues --   -0.52445  -0.52093  -0.51663  -0.51588  -0.51403
  Beta  occ. eigenvalues --   -0.51226  -0.51067  -0.50766  -0.50623  -0.50436
  Beta  occ. eigenvalues --   -0.50327  -0.49870  -0.49763  -0.49397  -0.48895
  Beta  occ. eigenvalues --   -0.47588  -0.46884  -0.46768  -0.46455  -0.46168
  Beta  occ. eigenvalues --   -0.46028  -0.45217  -0.44654  -0.43399  -0.43064
  Beta  occ. eigenvalues --   -0.41942  -0.40764  -0.40512
  Beta virt. eigenvalues --   -0.28065  -0.04829  -0.03565   0.06905   0.08846
  Beta virt. eigenvalues --    0.09227   0.09877   0.10119   0.10358   0.10586
  Beta virt. eigenvalues --    0.11311   0.12121   0.12502   0.13426   0.14489

 Mulliken charges and spin densities:
               1          2
     1  C   -0.225133  -0.003278
     2  N   -0.413046   0.600908
     3  C    0.864117  -0.097039
     4  O   -0.419034   0.140814
     5  N   -0.540343   0.084518
     6  C   -0.099770   0.003459
     7  C   -0.214980   0.010432
     8  C   -0.248475   0.000572
     9  C    0.549403   0.001217
    10  F   -0.283432  -0.000014
    11  F   -0.285226   0.000094
    12  C    0.745018   0.000169
    13  F   -0.273633  -0.000006
    14  F   -0.258004   0.000009
    15  O   -0.492457   0.000163
    16  C    0.979308  -0.000008
    17  F   -0.243361  -0.000001
    18  F   -0.243741   0.000004
    19  F   -0.243686   0.000001
    20  C    0.866425  -0.037999
    21  O   -0.467414   0.085718
    22  N   -0.568229   0.006357
    23  C   -0.079698   0.002154
    24  C   -0.211635   0.003513
    25  C   -0.266693   0.000906
    26  C    0.546389   0.000079
    27  F   -0.278443   0.000120
    28  F   -0.280210   0.000014
    29  C    0.765770  -0.000018
    30  F   -0.264640   0.000004
    31  F   -0.264490  -0.000002
    32  O   -0.515563   0.000007
    33  C    0.991842   0.000001
    34  F   -0.243698   0.000000
    35  F   -0.244254   0.000001
    36  F   -0.247411   0.000000
    37  C    0.863397  -0.110060
    38  O   -0.406411   0.205947
    39  H    0.230930   0.013145
    40  H    0.232422   0.016350
    41  H    0.253855   0.066607
    42  H    0.183697   0.003748
    43  H    0.189587  -0.000081
    44  H    0.147412  -0.000412
    45  H    0.160128   0.001006
    46  H    0.134793   0.000113
    47  H    0.159573   0.000050
    48  H    0.176058  -0.000267
    49  H    0.176291   0.000476
    50  H    0.141584   0.000340
    51  H    0.145306  -0.000150
    52  H    0.163324   0.000324
    53  H    0.156480  -0.000005
 Sum of Mulliken charges =   1.00000   1.00000

 Dipole moment (field-independent basis, Debye):
    X=             -0.2022    Y=            -10.7706    Z=             11.1092  Tot=             15.4745
 Quadrupole moment (field-independent basis, Debye-Ang):
   XX=           -213.6517   YY=           -163.2208   ZZ=           -187.0241
   XY=             -2.5969   XZ=              1.4646   YZ=            -19.3752

 Normal termination of Gaussian 09 at Sun Feb  2 11:48:18 2025.
