 Gaussian 09, Revision D.01,
 Gaussian 09:  ES64L-G09RevD.01 24-Apr-2013

 ----------------------------------------------------------------------
 #p CAM-B3LYP/6-31G(d,p) SCRF=(PCM,Solvent=Generic,Read) NoSymm out=wfn
 ----------------------------------------------------------------------

 -----------------
 Title LDAI1C2_neu
 -----------------
 Symbolic Z-matrix:
 Charge =  0 Multiplicity = 1

                          Input orientation:
 ---------------------------------------------------------------------
 Center     Atomic      Atomic             Coordinates (Angstroms)
 Number     Number       Type             X           Y           Z
 ---------------------------------------------------------------------
      1          6           0       -0.057206   -4.408830    2.091100
      2          7           0        0.042689   -2.985446    1.818055
      3          6           0        1.117482   -2.296471    2.334962
      4          8           0        2.007966   -2.860004    2.974686
      5          7           0        1.146673   -0.937803    2.092447
      6          6           0        2.219842   -0.154356    2.704457
      7          6           0        3.530162   -0.191940    1.906732
      8          6           0        3.438364    0.528529    0.556336
      9          6           0        4.789652    0.571431   -0.153062
     10          9           0        5.684014    1.188953    0.664639
     11          9           0        5.241287   -0.701616   -0.322454
     12          6           0        4.707310    1.288437   -1.523780
     13          9           0        3.720694    0.691512   -2.259348
     14          9           0        4.298961    2.576661   -1.376497
     15          8           0        5.834244    1.284159   -2.364244
     16          6           0        6.959715    1.775843   -1.699371
     17          9           0        6.667282    2.843084   -0.936837
     18          9           0        7.870930    2.149201   -2.620672
     19          9           0        7.500812    0.804558   -0.943722
     20          6           0        0.236431   -0.294315    1.281379
     21          8           0        0.281288    0.924033    1.093275
     22          7           0       -0.719464   -1.085443    0.680772
     23          6           0       -1.679047   -0.445532   -0.219828
     24          6           0       -2.909054    0.062388    0.541338
     25          6           0       -3.800749    1.016276   -0.264477
     26          6           0       -4.390235    0.403222   -1.533816
     27          9           0       -3.373891    0.086517   -2.383310
     28          9           0       -4.998123   -0.771609   -1.209085
     29          6           0       -5.392263    1.337684   -2.241797
     30          9           0       -4.764635    2.488237   -2.598601
     31          9           0       -5.855449    0.759871   -3.375941
     32          8           0       -6.470406    1.686314   -1.404881
     33          6           0       -7.514349    2.198203   -2.182488
     34          9           0       -7.080080    3.086189   -3.093926
     35          9           0       -8.177271    1.197409   -2.790332
     36          9           0       -8.376360    2.830296   -1.357761
     37          6           0       -0.877791   -2.427420    0.957819
     38          8           0       -1.791514   -3.090385    0.462954
     39          1           0        0.413128   -4.665079    3.044918
     40          1           0       -1.103608   -4.727305    2.121948
     41          1           0        0.452553   -4.948352    1.286517
     42          1           0        2.410134   -0.553718    3.708346
     43          1           0        1.898101    0.884522    2.841069
     44          1           0        3.843583   -1.230219    1.746500
     45          1           0        4.308764    0.284885    2.514582
     46          1           0        2.715667    0.008483   -0.081387
     47          1           0        3.080290    1.551696    0.718292
     48          1           0       -1.187233    0.386925   -0.736489
     49          1           0       -1.980401   -1.167425   -0.986491
     50          1           0       -2.584915    0.593466    1.445544
     51          1           0       -3.502463   -0.791864    0.889935
     52          1           0       -4.612837    1.338476    0.397885
     53          1           0       -3.218677    1.907671   -0.527062
 ---------------------------------------------------------------------

 SCF Done:  E(RCAM-B3LYP) =  -2556.20508620     A.U. after   13 cycles

 Alpha  occ. eigenvalues --  -24.83377 -24.83279 -24.82796 -24.82779 -24.82758
 Alpha  occ. eigenvalues --  -24.82668 -24.82594 -24.81924 -24.81819 -24.81654
 Alpha  occ. eigenvalues --  -24.80919 -24.80501 -24.80398 -24.80384 -19.32306
 Alpha  occ. eigenvalues --  -19.32097 -19.22084 -19.22027 -19.21904 -14.48851
 Alpha  occ. eigenvalues --  -14.48818 -14.48721 -10.59075 -10.58950 -10.52438
 Alpha  occ. eigenvalues --  -10.52270 -10.46147 -10.46124 -10.43317 -10.43231
 Alpha  occ. eigenvalues --  -10.43136 -10.31397 -10.30928 -10.30260 -10.28749
 Alpha  occ. eigenvalues --  -10.28392 -10.27667 -10.27552  -1.42673  -1.42580
 Alpha  occ. eigenvalues --   -1.38748  -1.38147  -1.35746  -1.35657  -1.33142
 Alpha  occ. eigenvalues --   -1.33130  -1.32428  -1.32381  -1.31565  -1.30819
 Alpha  occ. eigenvalues --   -1.29673  -1.29472  -1.20442  -1.20310  -1.19956
 Alpha  occ. eigenvalues --   -1.15313  -1.15211  -1.06830  -1.04244  -1.04150
 Alpha  occ. eigenvalues --   -0.91715  -0.91186  -0.88077  -0.86985  -0.83944
 Alpha  occ. eigenvalues --   -0.82624  -0.81778  -0.79687  -0.79215  -0.76155
 Alpha  occ. eigenvalues --   -0.75553  -0.73912  -0.73589  -0.71563  -0.71355
 Alpha  occ. eigenvalues --   -0.70713  -0.70470  -0.70263  -0.69934  -0.69834
 Alpha  occ. eigenvalues --   -0.69473  -0.68634  -0.66995  -0.66695  -0.66409
 Alpha  occ. eigenvalues --   -0.65658  -0.63669  -0.63276  -0.61748  -0.61140
 Alpha  occ. eigenvalues --   -0.60686  -0.60355  -0.59848  -0.59609  -0.57120
 Alpha  occ. eigenvalues --   -0.56812  -0.56541  -0.56222  -0.55511  -0.55406
 Alpha  occ. eigenvalues --   -0.55109  -0.54748  -0.54572  -0.54083  -0.53973
 Alpha  occ. eigenvalues --   -0.53898  -0.53715  -0.53133  -0.52860  -0.52619
 Alpha  occ. eigenvalues --   -0.52488  -0.52320  -0.52146  -0.51734  -0.51362
 Alpha  occ. eigenvalues --   -0.51200  -0.51032  -0.50678  -0.50355  -0.50220
 Alpha  occ. eigenvalues --   -0.50008  -0.49683  -0.49470  -0.49274  -0.49090
 Alpha  occ. eigenvalues --   -0.48780  -0.48610  -0.48300  -0.47935  -0.47673
 Alpha  occ. eigenvalues --   -0.47320  -0.47067  -0.46889  -0.46058  -0.45572
 Alpha  occ. eigenvalues --   -0.45072  -0.45025  -0.43869  -0.42730  -0.42279
 Alpha  occ. eigenvalues --   -0.42095  -0.40865  -0.40543  -0.38091  -0.37953
 Alpha  occ. eigenvalues --   -0.35697  -0.34600  -0.34517  -0.34144
 Alpha virt. eigenvalues --    0.03351   0.03455   0.11241   0.11670   0.12053
 Alpha virt. eigenvalues --    0.12659   0.14147   0.14710   0.15190   0.16453
 Alpha virt. eigenvalues --    0.17103   0.17447   0.17883   0.18064   0.18677

 Mulliken charges:
               1
     1  C   -0.183129
     2  N   -0.558219
     3  C    0.816679
     4  O   -0.533576
     5  N   -0.558211
     6  C   -0.072744
     7  C   -0.206543
     8  C   -0.241093
     9  C    0.544707
    10  F   -0.288000
    11  F   -0.287523
    12  C    0.742586
    13  F   -0.273341
    14  F   -0.260425
    15  O   -0.495057
    16  C    0.977649
    17  F   -0.244137
    18  F   -0.246065
    19  F   -0.243896
    20  C    0.827499
    21  O   -0.545963
    22  N   -0.571051
    23  C   -0.056507
    24  C   -0.203610
    25  C   -0.267204
    26  C    0.547677
    27  F   -0.278637
    28  F   -0.281679
    29  C    0.762884
    30  F   -0.266398
    31  F   -0.266881
    32  O   -0.514846
    33  C    0.990005
    34  F   -0.244868
    35  F   -0.245145
    36  F   -0.248714
    37  C    0.815875
    38  O   -0.533749
    39  H    0.158496
    40  H    0.158253
    41  H    0.151717
    42  H    0.151607
    43  H    0.154951
    44  H    0.136960
    45  H    0.131505
    46  H    0.137163
    47  H    0.147149
    48  H    0.146344
    49  H    0.153875
    50  H    0.129421
    51  H    0.135739
    52  H    0.150971
    53  H    0.147501
 Sum of Mulliken charges =   0.00000

 Dipole moment (field-independent basis, Debye):
    X=             -1.0068    Y=              0.2563    Z=              3.4666  Tot=              3.6190
 Quadrupole moment (field-independent basis, Debye-Ang):
   XX=           -233.2349   YY=           -210.5169   ZZ=           -208.8614
   XY=             -2.8924   XZ=             -5.1454   YZ=              1.8092

 Normal termination of Gaussian 09 at Sun Feb  2 11:42:00 2025.
