 Gaussian 09, Revision D.01,
 Gaussian 09:  ES64L-G09RevD.01 24-Apr-2013

 ----------------------------------------------------------------------
 #p CAM-B3LYP/6-31G(d,p) opt SCRF=(PCM,Solvent=Generic,Read) NoSymm out
 =wfn
 ----------------------------------------------------------------------

 ---------------
 Title FFKM1_pos
 ---------------
 Symbolic Z-matrix:
 Charge =  1 Multiplicity = 2

 SCF Done:  E(UCAM-B3LYP) =  -1463.03435457     A.U. after   27 cycles
 SCF Done:  E(UCAM-B3LYP) =  -1463.07242722     A.U. after   22 cycles
 SCF Done:  E(UCAM-B3LYP) =  -1463.08571800     A.U. after   18 cycles
 SCF Done:  E(UCAM-B3LYP) =  -1463.09997955     A.U. after   16 cycles
 SCF Done:  E(UCAM-B3LYP) =  -1463.10149332     A.U. after   15 cycles
 SCF Done:  E(UCAM-B3LYP) =  -1463.10269205     A.U. after   16 cycles
 SCF Done:  E(UCAM-B3LYP) =  -1463.10388041     A.U. after   15 cycles
 SCF Done:  E(UCAM-B3LYP) =  -1463.10498988     A.U. after   15 cycles
 SCF Done:  E(UCAM-B3LYP) =  -1463.10556983     A.U. after   13 cycles
 SCF Done:  E(UCAM-B3LYP) =  -1463.10593349     A.U. after   13 cycles
 SCF Done:  E(UCAM-B3LYP) =  -1463.10621960     A.U. after   11 cycles
 SCF Done:  E(UCAM-B3LYP) =  -1463.10622732     A.U. after   10 cycles
 SCF Done:  E(UCAM-B3LYP) =  -1463.10622995     A.U. after   10 cycles
 SCF Done:  E(UCAM-B3LYP) =  -1463.10623157     A.U. after   10 cycles
 SCF Done:  E(UCAM-B3LYP) =  -1463.10623321     A.U. after   11 cycles
 SCF Done:  E(UCAM-B3LYP) =  -1463.10623425     A.U. after    9 cycles
 SCF Done:  E(UCAM-B3LYP) =  -1463.10623505     A.U. after    9 cycles
 SCF Done:  E(UCAM-B3LYP) =  -1463.10623517     A.U. after    9 cycles
 SCF Done:  E(UCAM-B3LYP) =  -1463.10623492     A.U. after   10 cycles
 SCF Done:  E(UCAM-B3LYP) =  -1463.10623530     A.U. after   10 cycles
 Optimization completed.
    -- Stationary point found.

                          Input orientation:
 ---------------------------------------------------------------------
 Center     Atomic      Atomic             Coordinates (Angstroms)
 Number     Number       Type             X           Y           Z
 ---------------------------------------------------------------------
      1          9           0       -3.193077    0.992594    0.982879
      2          6           0       -2.284479    1.313439    0.083272
      3          9           0       -2.733451    1.017344   -1.123859
      4          9           0       -1.985946    2.586254    0.167025
      5          8           0       -1.086149    0.624060    0.341148
      6          6           0       -1.005305   -0.694877    0.071059
      7          9           0       -0.912488   -0.975093   -1.227012
      8          9           0       -1.998211   -1.412252    0.593358
      9          6           0        0.296551   -1.210418    0.780353
     10          9           0        0.613405   -0.650104    1.888596
     11          9           0        0.426850   -2.489507    0.777940
     12          6           0        1.869894   -0.762176   -0.385684
     13          9           0        2.804159   -1.183489    0.391664
     14          9           0        1.669711   -1.497090   -1.417644
     15          6           0        1.866644    0.786896   -0.635465
     16          9           0        1.658349    1.411226    0.504720
     17          9           0        0.931444    1.070023   -1.516871
     18          9           0        3.062099    1.073169   -1.113684
 ---------------------------------------------------------------------

 Alpha  occ. eigenvalues --  -24.96892 -24.96881 -24.96710 -24.96685 -24.90642
 Alpha  occ. eigenvalues --  -24.90632 -24.90598 -24.90219 -24.89841 -24.87592
 Alpha  occ. eigenvalues --  -24.87475 -24.87221 -19.38074 -10.63761 -10.63689
 Alpha  occ. eigenvalues --  -10.62524 -10.62473 -10.62026  -1.54773  -1.53331
 Alpha  occ. eigenvalues --   -1.50152  -1.48844  -1.47611  -1.47123  -1.46701
 Alpha  occ. eigenvalues --   -1.41120  -1.41049  -1.40094  -1.38285  -1.37890
 Alpha  occ. eigenvalues --   -1.27849  -0.99387  -0.96324  -0.89651  -0.86655
 Alpha  occ. eigenvalues --   -0.83975  -0.81565  -0.81315  -0.80481  -0.79928
 Alpha  occ. eigenvalues --   -0.79673  -0.77667  -0.76219  -0.76012  -0.75751
 Alpha  occ. eigenvalues --   -0.74162  -0.73530  -0.71358  -0.68413  -0.67838
 Alpha  occ. eigenvalues --   -0.67051  -0.66679  -0.66041  -0.64275  -0.63922
 Alpha  occ. eigenvalues --   -0.63178  -0.62790  -0.61961  -0.60633  -0.60117
 Alpha  occ. eigenvalues --   -0.59751  -0.59398  -0.59274  -0.58069  -0.57230
 Alpha  occ. eigenvalues --   -0.57062  -0.56867  -0.56412  -0.55173  -0.53973
 Alpha  occ. eigenvalues --   -0.53854  -0.51182  -0.47351
 Alpha virt. eigenvalues --   -0.09672   0.04797   0.06023   0.09207   0.11015
 Alpha virt. eigenvalues --    0.13719   0.16683   0.17664   0.18163   0.18968
 Alpha virt. eigenvalues --    0.19480   0.21397   0.21715   0.22949   0.24371

  Beta  occ. eigenvalues --  -24.96530 -24.96520 -24.96376 -24.96354 -24.90630
  Beta  occ. eigenvalues --  -24.90599 -24.90508 -24.90107 -24.89845 -24.87591
  Beta  occ. eigenvalues --  -24.87473 -24.87222 -19.38060 -10.63759 -10.63573
  Beta  occ. eigenvalues --  -10.62045 -10.61986 -10.61910  -1.54022  -1.52641
  Beta  occ. eigenvalues --   -1.49994  -1.48798  -1.47049  -1.46477  -1.46326
  Beta  occ. eigenvalues --   -1.41093  -1.40849  -1.39970  -1.38281  -1.37887
  Beta  occ. eigenvalues --   -1.27794  -0.98118  -0.95302  -0.88755  -0.85887
  Beta  occ. eigenvalues --   -0.83436  -0.81020  -0.80061  -0.79738  -0.79556
  Beta  occ. eigenvalues --   -0.79252  -0.77430  -0.75918  -0.75836  -0.75465
  Beta  occ. eigenvalues --   -0.74100  -0.73363  -0.69663  -0.67605  -0.67227
  Beta  occ. eigenvalues --   -0.66038  -0.65197  -0.64538  -0.63897  -0.63259
  Beta  occ. eigenvalues --   -0.62947  -0.62638  -0.61656  -0.60578  -0.59903
  Beta  occ. eigenvalues --   -0.59338  -0.59282  -0.59166  -0.57949  -0.57013
  Beta  occ. eigenvalues --   -0.56836  -0.56415  -0.56102  -0.54721  -0.53970
  Beta  occ. eigenvalues --   -0.53457  -0.51069
  Beta virt. eigenvalues --   -0.27020  -0.04580   0.05570   0.06722   0.09716
  Beta virt. eigenvalues --    0.12064   0.14721   0.17091   0.17978   0.18459
  Beta virt. eigenvalues --    0.19194   0.20363   0.21440   0.22083   0.23323

 Mulliken charges and spin densities:
               1          2
     1  F   -0.212578  -0.000058
     2  C    0.984188   0.000850
     3  F   -0.220706   0.000409
     4  F   -0.204365   0.000507
     5  O   -0.505490   0.004675
     6  C    0.794649   0.034394
     7  F   -0.215617  -0.000042
     8  F   -0.206142   0.027092
     9  C    0.494196   0.264786
    10  F   -0.096855   0.085948
    11  F   -0.113954   0.080157
    12  C    0.461663   0.264221
    13  F   -0.110262   0.081012
    14  F   -0.099148   0.086232
    15  C    0.830440   0.036808
    16  F   -0.197804   0.000478
    17  F   -0.194702   0.003601
    18  F   -0.187514   0.028928
 Sum of Mulliken charges =   1.00000   1.00000

 Dipole moment (field-independent basis, Debye):
    X=              3.9670    Y=             -3.2021    Z=              0.5649  Tot=              5.1293
 Quadrupole moment (field-independent basis, Debye-Ang):
   XX=            -72.6714   YY=            -79.7962   ZZ=            -83.8705
   XY=             -4.2527   XZ=             -2.3874   YZ=             -2.3206

 Normal termination of Gaussian 09 at Sun Feb  2 17:45:28 2025.
