 Gaussian 09, Revision D.01,
 Gaussian 09:  ES64L-G09RevD.01 24-Apr-2013

 ----------------------------------------------------------------------
 #p CAM-B3LYP/6-31G(d,p) SCRF=(PCM,Solvent=Generic,Read) NoSymm out=wfn
 ----------------------------------------------------------------------

 ---------------
 Title FFKM1_neu
 ---------------
 Symbolic Z-matrix:
 Charge =  0 Multiplicity = 1

                          Input orientation:
 ---------------------------------------------------------------------
 Center     Atomic      Atomic             Coordinates (Angstroms)
 Number     Number       Type             X           Y           Z
 ---------------------------------------------------------------------
      1          9           0       -3.193080    0.992590    0.982880
      2          6           0       -2.284480    1.313440    0.083270
      3          9           0       -2.733450    1.017340   -1.123860
      4          9           0       -1.985950    2.586250    0.167030
      5          8           0       -1.086150    0.624060    0.341150
      6          6           0       -1.005300   -0.694880    0.071060
      7          9           0       -0.912490   -0.975090   -1.227010
      8          9           0       -1.998210   -1.412250    0.593360
      9          6           0        0.296550   -1.210420    0.780350
     10          9           0        0.613400   -0.650100    1.888600
     11          9           0        0.426850   -2.489510    0.777940
     12          6           0        1.869890   -0.762180   -0.385680
     13          9           0        2.804160   -1.183490    0.391660
     14          9           0        1.669710   -1.497090   -1.417640
     15          6           0        1.866640    0.786900   -0.635460
     16          9           0        1.658350    1.411230    0.504720
     17          9           0        0.931440    1.070020   -1.516870
     18          9           0        3.062100    1.073170   -1.113680
 ---------------------------------------------------------------------

 SCF Done:  E(RCAM-B3LYP) =  -1463.39982986     A.U. after   12 cycles

 Alpha  occ. eigenvalues --  -24.83984 -24.83934 -24.83664 -24.83047 -24.82920
 Alpha  occ. eigenvalues --  -24.82710 -24.82679 -24.82586 -24.82556 -24.82286
 Alpha  occ. eigenvalues --  -24.82277 -24.82131 -19.31556 -10.59416 -10.53303
 Alpha  occ. eigenvalues --  -10.51944 -10.45808 -10.45677  -1.44787  -1.42917
 Alpha  occ. eigenvalues --   -1.41073  -1.39730  -1.38922  -1.34773  -1.34425
 Alpha  occ. eigenvalues --   -1.34354  -1.33834  -1.33251  -1.33096  -1.32371
 Alpha  occ. eigenvalues --   -1.21267  -0.88703  -0.84999  -0.80309  -0.76633
 Alpha  occ. eigenvalues --   -0.75621  -0.72688  -0.71882  -0.71202  -0.70521
 Alpha  occ. eigenvalues --   -0.69701  -0.69535  -0.68609  -0.67766  -0.66456
 Alpha  occ. eigenvalues --   -0.66175  -0.65456  -0.60633  -0.58613  -0.57442
 Alpha  occ. eigenvalues --   -0.57313  -0.56934  -0.56559  -0.55952  -0.55692
 Alpha  occ. eigenvalues --   -0.55021  -0.53911  -0.53834  -0.53483  -0.53272
 Alpha  occ. eigenvalues --   -0.52723  -0.52326  -0.51854  -0.51080  -0.50675
 Alpha  occ. eigenvalues --   -0.50539  -0.50355  -0.49618  -0.48426  -0.46529
 Alpha  occ. eigenvalues --   -0.45178  -0.44613  -0.31619
 Alpha virt. eigenvalues --    0.06512   0.15355   0.17556   0.19689   0.21707
 Alpha virt. eigenvalues --    0.22622   0.23194   0.24660   0.25105   0.25855
 Alpha virt. eigenvalues --    0.28178   0.30462   0.30994   0.33391   0.34112

 Mulliken charges:
               1
     1  F   -0.224750
     2  C    0.962597
     3  F   -0.232155
     4  F   -0.217426
     5  O   -0.512850
     6  C    0.742280
     7  F   -0.246684
     8  F   -0.256888
     9  C    0.410686
    10  F   -0.208091
    11  F   -0.223520
    12  C    0.379693
    13  F   -0.220772
    14  F   -0.211215
    15  C    0.762710
    16  F   -0.230910
    17  F   -0.232434
    18  F   -0.240272
 Sum of Mulliken charges =   0.00000

 Dipole moment (field-independent basis, Debye):
    X=             -0.3966    Y=              0.4526    Z=              0.0072  Tot=              0.6018
 Quadrupole moment (field-independent basis, Debye-Ang):
   XX=            -89.9904   YY=            -91.2630   ZZ=            -91.4242
   XY=             -1.0377   XZ=             -0.6436   YZ=             -0.4955

 Normal termination of Gaussian 09 at Sun Feb  2 23:12:43 2025.
