 Gaussian 09, Revision D.01,
 Gaussian 09:  ES64L-G09RevD.01 24-Apr-2013

 ----------------------------------------------------------------------
 #p CAM-B3LYP/6-31G(d,p) opt SCRF=(PCM,Solvent=Generic,Read) NoSymm out
 =wfn
 ----------------------------------------------------------------------

 ------------
 Title A1_neu
 ------------
 Symbolic Z-matrix:
 Charge =  0 Multiplicity = 1

 SCF Done:  E(RCAM-B3LYP) =  -1828.51012830     A.U. after   13 cycles
 SCF Done:  E(RCAM-B3LYP) =  -1828.53219508     A.U. after   12 cycles
 SCF Done:  E(RCAM-B3LYP) =  -1828.53845968     A.U. after   11 cycles
 SCF Done:  E(RCAM-B3LYP) =  -1828.53953090     A.U. after   11 cycles
 SCF Done:  E(RCAM-B3LYP) =  -1828.54167682     A.U. after   12 cycles
 SCF Done:  E(RCAM-B3LYP) =  -1828.54246010     A.U. after   11 cycles
 SCF Done:  E(RCAM-B3LYP) =  -1828.54304304     A.U. after   11 cycles
 SCF Done:  E(RCAM-B3LYP) =  -1828.54321927     A.U. after   12 cycles
 SCF Done:  E(RCAM-B3LYP) =  -1828.54326414     A.U. after   11 cycles
 SCF Done:  E(RCAM-B3LYP) =  -1828.54345325     A.U. after   11 cycles
 SCF Done:  E(RCAM-B3LYP) =  -1828.54429106     A.U. after   11 cycles
 SCF Done:  E(RCAM-B3LYP) =  -1828.54441705     A.U. after   11 cycles
 SCF Done:  E(RCAM-B3LYP) =  -1828.54443710     A.U. after    9 cycles
 SCF Done:  E(RCAM-B3LYP) =  -1828.54444143     A.U. after    9 cycles
 SCF Done:  E(RCAM-B3LYP) =  -1828.54444411     A.U. after    8 cycles
 SCF Done:  E(RCAM-B3LYP) =  -1828.54444548     A.U. after    9 cycles
 SCF Done:  E(RCAM-B3LYP) =  -1828.54444657     A.U. after    8 cycles
 SCF Done:  E(RCAM-B3LYP) =  -1828.54444736     A.U. after    8 cycles
 SCF Done:  E(RCAM-B3LYP) =  -1828.54444783     A.U. after    8 cycles
 SCF Done:  E(RCAM-B3LYP) =  -1828.54444796     A.U. after    7 cycles
 Optimization completed.
    -- Stationary point found.

                          Input orientation:
 ---------------------------------------------------------------------
 Center     Atomic      Atomic             Coordinates (Angstroms)
 Number     Number       Type             X           Y           Z
 ---------------------------------------------------------------------
      1          9           0        1.065379   -0.093011   -1.659295
      2          6           0        0.766347    0.502182   -0.470997
      3          6           0        1.934029    0.219967    0.492542
      4          9           0        3.040077    0.729217   -0.092593
      5          6           0        2.274129   -1.253141    0.809265
      6          9           0        3.398951   -1.270911    1.522798
      7          9           0        1.312727   -1.835959    1.518916
      8          9           0        2.466096   -1.937360   -0.315745
      9          9           0        1.713298    0.856072    1.657771
     10          6           0       -0.659293    0.067697   -0.003895
     11          8           0       -1.517211    1.122134   -0.287610
     12          6           0       -0.849552    2.327738   -0.213364
     13          9           0       -1.487904    3.217218   -0.958831
     14          9           0       -0.803616    2.770398    1.051837
     15          6           0        0.579832    2.037520   -0.717089
     16          9           0        0.634884    2.276919   -2.032849
     17          9           0        1.474658    2.812052   -0.091663
     18          6           0       -1.222803   -1.188611   -0.698146
     19          9           0       -0.302831   -2.172140   -0.605115
     20          6           0       -2.550724   -1.639449   -0.057436
     21          8           0       -2.340237   -2.508628    0.923407
     22          8           0       -3.611354   -1.219002   -0.425643
     23          9           0       -1.446930   -0.910398   -1.990582
     24          9           0       -0.664976   -0.166544    1.339595
     25          1           0       -3.202974   -2.743959    1.304718
 ---------------------------------------------------------------------

 Alpha  occ. eigenvalues --  -24.83365 -24.83283 -24.83236 -24.83230 -24.83150
 Alpha  occ. eigenvalues --  -24.83106 -24.83018 -24.82837 -24.82731 -24.82674
 Alpha  occ. eigenvalues --  -24.82666 -24.82477 -24.82109 -19.32222 -19.30652
 Alpha  occ. eigenvalues --  -19.25265 -10.54400 -10.52475 -10.48929 -10.48643
 Alpha  occ. eigenvalues --  -10.48045 -10.47276 -10.43793 -10.43062  -1.42946
 Alpha  occ. eigenvalues --   -1.41219  -1.39053  -1.38542  -1.38180  -1.35654
 Alpha  occ. eigenvalues --   -1.35003  -1.33621  -1.33400  -1.33100  -1.32346
 Alpha  occ. eigenvalues --   -1.32147  -1.31945  -1.22935  -1.22628  -1.13947
 Alpha  occ. eigenvalues --   -0.95106  -0.91572  -0.88312  -0.84350  -0.80352
 Alpha  occ. eigenvalues --   -0.77474  -0.75908  -0.73659  -0.72143  -0.71236
 Alpha  occ. eigenvalues --   -0.70235  -0.70048  -0.69605  -0.69102  -0.67503
 Alpha  occ. eigenvalues --   -0.67166  -0.66657  -0.66387  -0.65275  -0.64939
 Alpha  occ. eigenvalues --   -0.64107  -0.62347  -0.58630  -0.58249  -0.57847
 Alpha  occ. eigenvalues --   -0.56983  -0.56285  -0.56232  -0.55625  -0.55191
 Alpha  occ. eigenvalues --   -0.54916  -0.54677  -0.54311  -0.53931  -0.53785
 Alpha  occ. eigenvalues --   -0.53256  -0.52574  -0.52478  -0.52359  -0.51997
 Alpha  occ. eigenvalues --   -0.51534  -0.51261  -0.50912  -0.50628  -0.50264
 Alpha  occ. eigenvalues --   -0.49658  -0.49368  -0.49162  -0.47528  -0.46736
 Alpha  occ. eigenvalues --   -0.44548  -0.43247  -0.41780  -0.41732  -0.37606
 Alpha virt. eigenvalues --    0.00792   0.05279   0.09483   0.09793   0.11773
 Alpha virt. eigenvalues --    0.13356   0.15347   0.17971   0.18456   0.22072
 Alpha virt. eigenvalues --    0.23578   0.24565   0.25331   0.26227   0.26835

 Mulliken charges:
               1
     1  F   -0.284099
     2  C    0.145750
     3  C    0.527787
     4  F   -0.272563
     5  C    0.781063
     6  F   -0.241597
     7  F   -0.235960
     8  F   -0.237947
     9  F   -0.266316
    10  C    0.474182
    11  O   -0.479379
    12  C    0.755877
    13  F   -0.235278
    14  F   -0.250108
    15  C    0.537681
    16  F   -0.250715
    17  F   -0.248362
    18  C    0.592461
    19  F   -0.270126
    20  C    0.523446
    21  O   -0.460058
    22  O   -0.425117
    23  F   -0.260602
    24  F   -0.278403
    25  H    0.358384
 Sum of Mulliken charges =   0.00000

 Dipole moment (field-independent basis, Debye):
    X=             -0.6417    Y=             -1.4727    Z=              1.5698  Tot=              2.2461
 Quadrupole moment (field-independent basis, Debye-Ang):
   XX=           -126.7213   YY=           -119.8335   ZZ=           -125.6563
   XY=              7.3372   XZ=             -7.0058   YZ=             -3.7057

 Normal termination of Gaussian 09 at Wed Feb  5 01:51:07 2025.
