 Gaussian 09, Revision D.01,
 Gaussian 09:  ES64L-G09RevD.01 24-Apr-2013

 ----------------------------------------------------------------------
 #p CAM-B3LYP/6-31G(d,p) SCRF=(PCM,Solvent=Generic,Read) NoSymm out=wfn
 ----------------------------------------------------------------------

 ------------------
 Title A899021201_0
 ------------------
 Symbolic Z-matrix:
 Charge =  0 Multiplicity = 1

                          Input orientation:
 ---------------------------------------------------------------------
 Center     Atomic      Atomic             Coordinates (Angstroms)
 Number     Number       Type             X           Y           Z
 ---------------------------------------------------------------------
      1          6           0        1.458448    3.997597    0.353135
      2          6           0        1.796723    2.714047    0.189558
      3          7           0        1.007310    1.598977    0.447617
      4          6           0       -0.325173    1.712785    0.981796
      5          7           0       -1.135468    0.625607    0.545895
      6          6           0       -2.565407    0.841147    0.383692
      7          9           0       -2.875203    1.994263    1.048037
      8          9           0       -3.240060   -0.124693    1.055977
      9          6           0       -3.042064    0.959456   -1.084964
     10          9           0       -2.475699    2.100552   -1.598335
     11          8           0       -2.523545   -0.112423   -1.873410
     12          6           0       -3.081718   -0.178548   -3.156387
     13          9           0       -4.307364   -0.721903   -3.081431
     14          9           0       -3.152339    1.041419   -3.713341
     15          9           0       -2.305339   -0.961333   -3.927172
     16          6           0       -4.566609    1.115145   -1.008742
     17          9           0       -5.099096    1.408015   -2.219764
     18          9           0       -5.172059   -0.013388   -0.578780
     19          9           0       -4.946085    2.117094   -0.183439
     20          6           0       -0.605980   -0.629231    0.436378
     21          8           0       -1.307936   -1.579811    0.106433
     22          7           0        0.747582   -0.729242    0.696455
     23          6           0        1.279493   -2.086196    0.682070
     24          9           0        0.412600   -2.863351    1.414321
     25          9           0        1.189859   -2.574638   -0.588780
     26          6           0        2.691677   -2.434869    1.251760
     27          9           0        2.774582   -3.806699    1.370875
     28          8           0        3.867297   -2.068031    0.532334
     29          6           0        3.906909   -2.574404   -0.778759
     30          9           0        3.467368   -3.842926   -0.837778
     31          9           0        5.186016   -2.549007   -1.204371
     32          9           0        3.171294   -1.809069   -1.602829
     33          6           0        2.742579   -1.885158    2.677090
     34          9           0        1.743813   -2.368605    3.452373
     35          9           0        2.642407   -0.536301    2.728767
     36          9           0        3.905796   -2.210084    3.294674
     37          6           0        1.570241    0.324588    0.376289
     38          8           0        2.741391    0.147728    0.050984
     39          1           0        0.501628    4.342192    0.723397
     40          1           0        2.181068    4.773716    0.111187
     41          1           0        2.800872    2.497890   -0.180781
     42          1           0       -0.277271    1.706287    2.076569
     43          1           0       -0.782542    2.641402    0.631400
 ---------------------------------------------------------------------

 SCF Done:  E(RCAM-B3LYP) =  -2759.85710694     A.U. after   13 cycles

 Alpha  occ. eigenvalues --  -24.84029 -24.83662 -24.83625 -24.83543 -24.83533
 Alpha  occ. eigenvalues --  -24.83386 -24.83321 -24.83265 -24.83220 -24.82846
 Alpha  occ. eigenvalues --  -24.82773 -24.82752 -24.82734 -24.82708 -24.82199
 Alpha  occ. eigenvalues --  -24.82073 -24.82051 -24.81954 -19.33059 -19.31978
 Alpha  occ. eigenvalues --  -19.22910 -19.22752 -14.51925 -14.49942 -14.49115
 Alpha  occ. eigenvalues --  -10.59566 -10.58735 -10.55543 -10.55340 -10.52971
 Alpha  occ. eigenvalues --  -10.52923 -10.48975 -10.48964 -10.44995 -10.44571
 Alpha  occ. eigenvalues --  -10.37411 -10.32043 -10.26685  -1.43255  -1.42201
 Alpha  occ. eigenvalues --   -1.41897  -1.41745  -1.39519  -1.38256  -1.35738
 Alpha  occ. eigenvalues --   -1.34668  -1.33510  -1.33352  -1.33012  -1.32789
 Alpha  occ. eigenvalues --   -1.32348  -1.32278  -1.32265  -1.32133  -1.32108
 Alpha  occ. eigenvalues --   -1.30904  -1.21119  -1.20656  -1.19597  -1.16587
 Alpha  occ. eigenvalues --   -1.10627  -1.07870  -1.04996  -0.93777  -0.93194
 Alpha  occ. eigenvalues --   -0.87392  -0.85571  -0.84518  -0.82084  -0.81165
 Alpha  occ. eigenvalues --   -0.80396  -0.78706  -0.77323  -0.75170  -0.73990
 Alpha  occ. eigenvalues --   -0.72895  -0.71753  -0.71572  -0.71138  -0.70641
 Alpha  occ. eigenvalues --   -0.70154  -0.69537  -0.69213  -0.68860  -0.68632
 Alpha  occ. eigenvalues --   -0.68227  -0.67629  -0.67426  -0.66778  -0.66246
 Alpha  occ. eigenvalues --   -0.65564  -0.65235  -0.64593  -0.64392  -0.62464
 Alpha  occ. eigenvalues --   -0.59954  -0.59732  -0.59176  -0.58096  -0.57661
 Alpha  occ. eigenvalues --   -0.57175  -0.56668  -0.56472  -0.56362  -0.56266
 Alpha  occ. eigenvalues --   -0.56110  -0.55727  -0.55563  -0.55117  -0.54783
 Alpha  occ. eigenvalues --   -0.54546  -0.54226  -0.53965  -0.53920  -0.53580
 Alpha  occ. eigenvalues --   -0.53098  -0.52933  -0.52778  -0.52538  -0.52295
 Alpha  occ. eigenvalues --   -0.51997  -0.51771  -0.51399  -0.51285  -0.50982
 Alpha  occ. eigenvalues --   -0.50861  -0.50648  -0.50541  -0.50387  -0.50161
 Alpha  occ. eigenvalues --   -0.50067  -0.49882  -0.49587  -0.49311  -0.49119
 Alpha  occ. eigenvalues --   -0.49025  -0.48385  -0.47885  -0.45879  -0.45743
 Alpha  occ. eigenvalues --   -0.45012  -0.44422  -0.43456  -0.41899  -0.39503
 Alpha  occ. eigenvalues --   -0.37307  -0.36380  -0.36243  -0.30230
 Alpha virt. eigenvalues --    0.01754   0.03861   0.05557   0.06175   0.08583
 Alpha virt. eigenvalues --    0.09209   0.10867   0.13320   0.14018   0.14793
 Alpha virt. eigenvalues --    0.16239   0.17149   0.17374   0.18357   0.18454

 Mulliken charges:
               1
     1  C   -0.315073
     2  C    0.146086
     3  N   -0.546644
     4  C    0.127648
     5  N   -0.622301
     6  C    0.745124
     7  F   -0.268605
     8  F   -0.245782
     9  C    0.437660
    10  F   -0.272790
    11  O   -0.497948
    12  C    0.995227
    13  F   -0.243872
    14  F   -0.245629
    15  F   -0.237327
    16  C    0.815180
    17  F   -0.258453
    18  F   -0.243114
    19  F   -0.247849
    20  C    0.858739
    21  O   -0.503731
    22  N   -0.649343
    23  C    0.776490
    24  F   -0.275572
    25  F   -0.262433
    26  C    0.411445
    27  F   -0.276656
    28  O   -0.492086
    29  C    0.997871
    30  F   -0.247747
    31  F   -0.244692
    32  F   -0.241130
    33  C    0.805990
    34  F   -0.243719
    35  F   -0.241388
    36  F   -0.250382
    37  C    0.820633
    38  O   -0.521911
    39  H    0.117385
    40  H    0.131599
    41  H    0.162817
    42  H    0.176621
    43  H    0.169665
 Sum of Mulliken charges =   0.00000

 Dipole moment (field-independent basis, Debye):
    X=             -0.7377    Y=              5.6825    Z=              1.3528  Tot=              5.8877
 Quadrupole moment (field-independent basis, Debye-Ang):
   XX=           -215.0050   YY=           -199.3402   ZZ=           -200.2912
   XY=              1.0534   XZ=             -1.4009   YZ=              3.6025

 Normal termination of Gaussian 09 at Sun Mar  3 18:00:25 2024.
