 Gaussian 09, Revision D.01,
 Gaussian 09:  ES64L-G09RevD.01 24-Apr-2013

 ----------------------------------------------------------------------
 #p CAM-B3LYP/6-31G(d,p) SCRF=(PCM,Solvent=Generic,Read) NoSymm out=wfn
 ----------------------------------------------------------------------

 -------------------
 Title A899021201_p1
 -------------------
 Symbolic Z-matrix:
 Charge =  1 Multiplicity = 2

                          Input orientation:
 ---------------------------------------------------------------------
 Center     Atomic      Atomic             Coordinates (Angstroms)
 Number     Number       Type             X           Y           Z
 ---------------------------------------------------------------------
      1          6           0        1.458448    3.997597    0.353135
      2          6           0        1.796723    2.714047    0.189558
      3          7           0        1.007310    1.598977    0.447617
      4          6           0       -0.325173    1.712785    0.981796
      5          7           0       -1.135468    0.625607    0.545895
      6          6           0       -2.565407    0.841147    0.383692
      7          9           0       -2.875203    1.994263    1.048037
      8          9           0       -3.240060   -0.124693    1.055977
      9          6           0       -3.042064    0.959456   -1.084964
     10          9           0       -2.475699    2.100552   -1.598335
     11          8           0       -2.523545   -0.112423   -1.873410
     12          6           0       -3.081718   -0.178548   -3.156387
     13          9           0       -4.307364   -0.721903   -3.081431
     14          9           0       -3.152339    1.041419   -3.713341
     15          9           0       -2.305339   -0.961333   -3.927172
     16          6           0       -4.566609    1.115145   -1.008742
     17          9           0       -5.099096    1.408015   -2.219764
     18          9           0       -5.172059   -0.013388   -0.578780
     19          9           0       -4.946085    2.117094   -0.183439
     20          6           0       -0.605980   -0.629231    0.436378
     21          8           0       -1.307936   -1.579811    0.106433
     22          7           0        0.747582   -0.729242    0.696455
     23          6           0        1.279493   -2.086196    0.682070
     24          9           0        0.412600   -2.863351    1.414321
     25          9           0        1.189859   -2.574638   -0.588780
     26          6           0        2.691677   -2.434869    1.251760
     27          9           0        2.774582   -3.806699    1.370875
     28          8           0        3.867297   -2.068031    0.532334
     29          6           0        3.906909   -2.574404   -0.778759
     30          9           0        3.467368   -3.842926   -0.837778
     31          9           0        5.186016   -2.549007   -1.204371
     32          9           0        3.171294   -1.809069   -1.602829
     33          6           0        2.742579   -1.885158    2.677090
     34          9           0        1.743813   -2.368605    3.452373
     35          9           0        2.642407   -0.536301    2.728767
     36          9           0        3.905796   -2.210084    3.294674
     37          6           0        1.570241    0.324588    0.376289
     38          8           0        2.741391    0.147728    0.050984
     39          1           0        0.501628    4.342192    0.723397
     40          1           0        2.181068    4.773716    0.111187
     41          1           0        2.800872    2.497890   -0.180781
     42          1           0       -0.277271    1.706287    2.076569
     43          1           0       -0.782542    2.641402    0.631400
 ---------------------------------------------------------------------

 SCF Done:  E(UCAM-B3LYP) =  -2759.58913733     A.U. after   21 cycles

 Alpha  occ. eigenvalues --  -24.87313 -24.86714 -24.85873 -24.85786 -24.85696
 Alpha  occ. eigenvalues --  -24.85477 -24.85422 -24.85364 -24.85335 -24.85321
 Alpha  occ. eigenvalues --  -24.85075 -24.85058 -24.85011 -24.84850 -24.84784
 Alpha  occ. eigenvalues --  -24.84758 -24.84687 -24.84632 -19.35393 -19.34769
 Alpha  occ. eigenvalues --  -19.32005 -19.27195 -14.63546 -14.57814 -14.54970
 Alpha  occ. eigenvalues --  -10.61486 -10.61124 -10.57956 -10.57537 -10.56692
 Alpha  occ. eigenvalues --  -10.56437 -10.52906 -10.51876 -10.51588 -10.49597
 Alpha  occ. eigenvalues --  -10.45609 -10.44644 -10.41822  -1.45109  -1.44678
 Alpha  occ. eigenvalues --   -1.44206  -1.43877  -1.42486  -1.41520  -1.38335
 Alpha  occ. eigenvalues --   -1.37213  -1.35697  -1.35493  -1.35301  -1.35079
 Alpha  occ. eigenvalues --   -1.34876  -1.34551  -1.34442  -1.34417  -1.34061
 Alpha  occ. eigenvalues --   -1.33915  -1.28595  -1.23261  -1.22678  -1.22292
 Alpha  occ. eigenvalues --   -1.19524  -1.13933  -1.12267  -1.00342  -0.96564
 Alpha  occ. eigenvalues --   -0.96339  -0.92283  -0.89402  -0.87285  -0.84592
 Alpha  occ. eigenvalues --   -0.83964  -0.82908  -0.80734  -0.79204  -0.77961
 Alpha  occ. eigenvalues --   -0.77691  -0.75863  -0.75018  -0.74375  -0.74153
 Alpha  occ. eigenvalues --   -0.73118  -0.72593  -0.72333  -0.71945  -0.71539
 Alpha  occ. eigenvalues --   -0.71220  -0.70777  -0.70341  -0.69891  -0.69781
 Alpha  occ. eigenvalues --   -0.69387  -0.68806  -0.68504  -0.68310  -0.67539
 Alpha  occ. eigenvalues --   -0.67274  -0.64965  -0.63731  -0.62509  -0.62255
 Alpha  occ. eigenvalues --   -0.61308  -0.60900  -0.60682  -0.59521  -0.59255
 Alpha  occ. eigenvalues --   -0.59153  -0.58813  -0.58599  -0.58353  -0.58233
 Alpha  occ. eigenvalues --   -0.58090  -0.57754  -0.57249  -0.57169  -0.56993
 Alpha  occ. eigenvalues --   -0.56604  -0.56422  -0.56259  -0.55753  -0.55531
 Alpha  occ. eigenvalues --   -0.55140  -0.54815  -0.54544  -0.54504  -0.54271
 Alpha  occ. eigenvalues --   -0.54040  -0.53696  -0.53602  -0.53522  -0.52938
 Alpha  occ. eigenvalues --   -0.52848  -0.52574  -0.52320  -0.52134  -0.51866
 Alpha  occ. eigenvalues --   -0.51764  -0.51340  -0.51030  -0.50922  -0.50659
 Alpha  occ. eigenvalues --   -0.48822  -0.48291  -0.46964  -0.46733  -0.45369
 Alpha  occ. eigenvalues --   -0.44609  -0.44189  -0.41128  -0.40803
 Alpha virt. eigenvalues --   -0.08059  -0.02412  -0.00264   0.02381   0.03233
 Alpha virt. eigenvalues --    0.05529   0.06929   0.07377   0.08470   0.09329
 Alpha virt. eigenvalues --    0.10470   0.11614   0.12498   0.13133   0.13924

  Beta  occ. eigenvalues --  -24.87312 -24.86713 -24.85873 -24.85786 -24.85696
  Beta  occ. eigenvalues --  -24.85477 -24.85422 -24.85362 -24.85335 -24.85321
  Beta  occ. eigenvalues --  -24.85075 -24.85058 -24.85011 -24.84850 -24.84784
  Beta  occ. eigenvalues --  -24.84756 -24.84687 -24.84632 -19.35393 -19.34769
  Beta  occ. eigenvalues --  -19.31741 -19.27196 -14.62729 -14.57804 -14.54957
  Beta  occ. eigenvalues --  -10.61486 -10.61124 -10.57956 -10.57537 -10.56693
  Beta  occ. eigenvalues --  -10.56436 -10.53015 -10.51876 -10.51588 -10.49599
  Beta  occ. eigenvalues --  -10.45585 -10.44676 -10.40983  -1.45109  -1.44677
  Beta  occ. eigenvalues --   -1.44205  -1.43876  -1.42485  -1.41518  -1.38335
  Beta  occ. eigenvalues --   -1.37213  -1.35696  -1.35491  -1.35301  -1.35079
  Beta  occ. eigenvalues --   -1.34874  -1.34549  -1.34442  -1.34417  -1.34061
  Beta  occ. eigenvalues --   -1.33913  -1.28091  -1.23221  -1.22605  -1.22239
  Beta  occ. eigenvalues --   -1.18561  -1.13813  -1.11999  -0.98624  -0.96320
  Beta  occ. eigenvalues --   -0.96267  -0.92089  -0.89145  -0.86850  -0.84536
  Beta  occ. eigenvalues --   -0.83908  -0.82907  -0.80616  -0.78863  -0.77956
  Beta  occ. eigenvalues --   -0.77519  -0.75699  -0.74979  -0.74332  -0.74135
  Beta  occ. eigenvalues --   -0.72963  -0.72563  -0.72269  -0.71805  -0.71311
  Beta  occ. eigenvalues --   -0.71211  -0.70705  -0.70024  -0.69870  -0.69549
  Beta  occ. eigenvalues --   -0.69195  -0.68729  -0.68456  -0.68013  -0.67336
  Beta  occ. eigenvalues --   -0.67091  -0.64754  -0.63179  -0.62426  -0.62168
  Beta  occ. eigenvalues --   -0.60985  -0.60549  -0.60195  -0.59444  -0.59230
  Beta  occ. eigenvalues --   -0.59071  -0.58795  -0.58594  -0.58240  -0.58129
  Beta  occ. eigenvalues --   -0.57911  -0.57632  -0.57239  -0.57122  -0.56980
  Beta  occ. eigenvalues --   -0.56519  -0.56381  -0.56014  -0.55720  -0.55420
  Beta  occ. eigenvalues --   -0.54950  -0.54770  -0.54533  -0.54432  -0.54269
  Beta  occ. eigenvalues --   -0.53949  -0.53691  -0.53479  -0.53394  -0.52934
  Beta  occ. eigenvalues --   -0.52842  -0.52444  -0.52307  -0.51934  -0.51783
  Beta  occ. eigenvalues --   -0.51413  -0.51090  -0.50923  -0.50664  -0.49178
  Beta  occ. eigenvalues --   -0.48585  -0.48255  -0.46936  -0.46652  -0.45054
  Beta  occ. eigenvalues --   -0.43845  -0.41029  -0.40761
  Beta virt. eigenvalues --   -0.23400  -0.05166  -0.01002   0.00923   0.02387
  Beta virt. eigenvalues --    0.03283   0.05613   0.07049   0.07652   0.08693
  Beta virt. eigenvalues --    0.09537   0.10617   0.11924   0.12720   0.13414

 Mulliken charges and spin densities:
               1          2
     1  C   -0.152748   0.599698
     2  C    0.234317   0.035853
     3  N   -0.472324   0.350155
     4  C    0.101406  -0.022163
     5  N   -0.634170   0.004172
     6  C    0.751200   0.000605
     7  F   -0.262977   0.000176
     8  F   -0.235210   0.000118
     9  C    0.438412   0.000004
    10  F   -0.273425   0.000078
    11  O   -0.501064  -0.000001
    12  C    0.998117  -0.000002
    13  F   -0.239780   0.000001
    14  F   -0.244173   0.000000
    15  F   -0.235083  -0.000001
    16  C    0.820654   0.000036
    17  F   -0.254217   0.000016
    18  F   -0.239359  -0.000001
    19  F   -0.245957  -0.000001
    20  C    0.880238  -0.000326
    21  O   -0.467236  -0.000400
    22  N   -0.649126   0.006133
    23  C    0.780481  -0.000492
    24  F   -0.262675  -0.000053
    25  F   -0.250945   0.000685
    26  C    0.409542   0.000060
    27  F   -0.265723   0.000013
    28  O   -0.493949   0.000018
    29  C    1.002447  -0.000004
    30  F   -0.242060   0.000034
    31  F   -0.239007   0.000013
    32  F   -0.244675   0.000412
    33  C    0.810610  -0.000036
    34  F   -0.238013   0.000013
    35  F   -0.247607   0.000152
    36  F   -0.243094  -0.000011
    37  C    0.867240  -0.058194
    38  O   -0.435116   0.104772
    39  H    0.223422  -0.024015
    40  H    0.244450  -0.026614
    41  H    0.257394  -0.001997
    42  H    0.243075   0.023416
    43  H    0.206709   0.007678
 Sum of Mulliken charges =   1.00000   1.00000

 Dipole moment (field-independent basis, Debye):
    X=              5.1210    Y=             16.2336    Z=              3.1116  Tot=             17.3042
 Quadrupole moment (field-independent basis, Debye-Ang):
   XX=           -194.0200   YY=           -151.2705   ZZ=           -193.3745
   XY=             15.8553   XZ=              0.9388   YZ=              7.1120

 Normal termination of Gaussian 09 at Sun Mar  3 18:01:46 2024.
