 Gaussian 09, Revision D.01,
 Gaussian 09:  ES64L-G09RevD.01 24-Apr-2013

 ----------------------------------------------------------------------
 #p CAM-B3LYP/6-31G(d,p) SCRF=(PCM,Solvent=Generic,Read) NoSymm out=wfn
 ----------------------------------------------------------------------

 --------------------
 Title A1303169710_p1
 --------------------
 Symbolic Z-matrix:
 Charge =  1 Multiplicity = 2

                          Input orientation:
 ---------------------------------------------------------------------
 Center     Atomic      Atomic             Coordinates (Angstroms)
 Number     Number       Type             X           Y           Z
 ---------------------------------------------------------------------
      1          6           0       -1.976224    4.981851    1.298446
      2          6           0       -1.516398    3.895920    0.339689
      3          6           0       -1.038677    2.653215    1.091226
      4          7           0       -0.613517    1.586057    0.187564
      5          6           0        0.653852    1.711450   -0.469212
      6          7           0        1.117872    0.421070   -0.846912
      7          6           0        2.546725    0.153568   -0.863637
      8          9           0        2.904063   -0.209153   -2.119430
      9          9           0        3.192666    1.339155   -0.651867
     10          6           0        3.017331   -0.866389    0.202693
     11          9           0        2.400452   -2.066155    0.018766
     12          8           0        2.574936   -0.381377    1.483726
     13          6           0        3.105850   -1.118166    2.554348
     14          9           0        3.083005   -2.435538    2.308949
     15          9           0        2.367702   -0.863088    3.650437
     16          9           0        4.364652   -0.708802    2.782371
     17          6           0        4.529311   -1.010846   -0.000766
     18          9           0        4.862651   -1.367378   -1.259441
     19          9           0        5.181513    0.141843    0.278866
     20          9           0        5.052961   -1.958104    0.814175
     21          6           0        0.240991   -0.494619   -1.354916
     22          8           0        0.628078   -1.577020   -1.782317
     23          7           0       -1.087726   -0.143859   -1.308218
     24          6           0       -2.052714   -1.083267   -1.851804
     25          9           0       -3.179408   -0.388327   -2.185879
     26          9           0       -1.598256   -1.531048   -3.060820
     27          6           0       -2.407874   -2.289671   -0.950031
     28          9           0       -2.779714   -1.875597    0.294460
     29          8           0       -1.328509   -3.228041   -0.824817
     30          6           0       -0.856421   -3.328072    0.489602
     31          9           0        0.196399   -4.166667    0.511305
     32          9           0       -0.454753   -2.122131    0.937745
     33          9           0       -1.813975   -3.825258    1.291878
     34          6           0       -3.594062   -2.989501   -1.604436
     35          9           0       -3.322486   -3.406278   -2.862225
     36          9           0       -4.699070   -2.214700   -1.665338
     37          9           0       -3.940218   -4.098191   -0.897793
     38          6           0       -1.557848    0.733159   -0.352525
     39          8           0       -2.724712    0.741624    0.030701
     40          1           0       -2.809821    4.632625    1.916100
     41          1           0       -2.311837    5.862159    0.741415
     42          1           0       -1.161705    5.289665    1.961877
     43          1           0       -2.340941    3.634854   -0.334012
     44          1           0       -0.708456    4.289050   -0.288245
     45          1           0       -0.199677    2.895763    1.753637
     46          1           0       -1.848256    2.274371    1.726285
     47          1           0        0.547644    2.335010   -1.363459
     48          1           0        1.354600    2.174835    0.231839
 ---------------------------------------------------------------------

 SCF Done:  E(UCAM-B3LYP) =  -2800.10520406     A.U. after   25 cycles

 Alpha  occ. eigenvalues --  -24.87758 -24.87552 -24.86963 -24.86638 -24.86106
 Alpha  occ. eigenvalues --  -24.86095 -24.85971 -24.85797 -24.85640 -24.85580
 Alpha  occ. eigenvalues --  -24.85463 -24.85407 -24.85370 -24.85242 -24.84968
 Alpha  occ. eigenvalues --  -24.84955 -24.84741 -24.84329 -19.36020 -19.35181
 Alpha  occ. eigenvalues --  -19.35005 -19.27912 -14.66096 -14.58406 -14.55754
 Alpha  occ. eigenvalues --  -10.62123 -10.61975 -10.57606 -10.57063 -10.57016
 Alpha  occ. eigenvalues --  -10.56789 -10.53925 -10.52145 -10.51779 -10.50407
 Alpha  occ. eigenvalues --  -10.45762 -10.40306 -10.34102 -10.29859  -1.45571
 Alpha  occ. eigenvalues --   -1.45491  -1.44068  -1.43756  -1.42782  -1.42223
 Alpha  occ. eigenvalues --   -1.39956  -1.38484  -1.36236  -1.36083  -1.35756
 Alpha  occ. eigenvalues --   -1.35459  -1.35370  -1.35011  -1.34537  -1.34195
 Alpha  occ. eigenvalues --   -1.34143  -1.33664  -1.30283  -1.24299  -1.23332
 Alpha  occ. eigenvalues --   -1.23075  -1.20873  -1.14824  -1.13047  -0.97812
 Alpha  occ. eigenvalues --   -0.96886  -0.96088  -0.93452  -0.90034  -0.88323
 Alpha  occ. eigenvalues --   -0.84937  -0.84062  -0.83369  -0.82218  -0.80032
 Alpha  occ. eigenvalues --   -0.78985  -0.78051  -0.76750  -0.76303  -0.75398
 Alpha  occ. eigenvalues --   -0.74646  -0.74166  -0.73945  -0.73437  -0.72764
 Alpha  occ. eigenvalues --   -0.72376  -0.72206  -0.71757  -0.71116  -0.70843
 Alpha  occ. eigenvalues --   -0.70098  -0.69571  -0.69427  -0.68783  -0.68681
 Alpha  occ. eigenvalues --   -0.68561  -0.68240  -0.67222  -0.65357  -0.63242
 Alpha  occ. eigenvalues --   -0.63190  -0.62814  -0.62113  -0.61549  -0.60752
 Alpha  occ. eigenvalues --   -0.60542  -0.59745  -0.59363  -0.59278  -0.58958
 Alpha  occ. eigenvalues --   -0.58772  -0.58530  -0.58413  -0.58159  -0.57737
 Alpha  occ. eigenvalues --   -0.57651  -0.57504  -0.57060  -0.56778  -0.56579
 Alpha  occ. eigenvalues --   -0.56296  -0.56221  -0.55926  -0.55252  -0.55051
 Alpha  occ. eigenvalues --   -0.54793  -0.54343  -0.54167  -0.54046  -0.53726
 Alpha  occ. eigenvalues --   -0.53228  -0.53127  -0.52917  -0.52692  -0.52547
 Alpha  occ. eigenvalues --   -0.52532  -0.52259  -0.52241  -0.51780  -0.51613
 Alpha  occ. eigenvalues --   -0.51541  -0.51071  -0.50990  -0.50859  -0.48958
 Alpha  occ. eigenvalues --   -0.48669  -0.47985  -0.47127  -0.47090  -0.46396
 Alpha  occ. eigenvalues --   -0.45876  -0.44537  -0.41908  -0.41535
 Alpha virt. eigenvalues --   -0.06217  -0.00458   0.01983   0.02881   0.04734
 Alpha virt. eigenvalues --    0.06183   0.06712   0.08601   0.09475   0.10421
 Alpha virt. eigenvalues --    0.10587   0.12039   0.12730   0.13597   0.14412

  Beta  occ. eigenvalues --  -24.87756 -24.87545 -24.86963 -24.86637 -24.86106
  Beta  occ. eigenvalues --  -24.86096 -24.85971 -24.85796 -24.85640 -24.85580
  Beta  occ. eigenvalues --  -24.85463 -24.85407 -24.85370 -24.85241 -24.84968
  Beta  occ. eigenvalues --  -24.84955 -24.84741 -24.84329 -19.36020 -19.35180
  Beta  occ. eigenvalues --  -19.34323 -19.27925 -14.64584 -14.58429 -14.55722
  Beta  occ. eigenvalues --  -10.62123 -10.61975 -10.57606 -10.57063 -10.57016
  Beta  occ. eigenvalues --  -10.56787 -10.54160 -10.52144 -10.51778 -10.50406
  Beta  occ. eigenvalues --  -10.45797 -10.40297 -10.33931 -10.29844  -1.45570
  Beta  occ. eigenvalues --   -1.45490  -1.44067  -1.43755  -1.42779  -1.42222
  Beta  occ. eigenvalues --   -1.39945  -1.38484  -1.36236  -1.36081  -1.35756
  Beta  occ. eigenvalues --   -1.35459  -1.35368  -1.35010  -1.34537  -1.34195
  Beta  occ. eigenvalues --   -1.34142  -1.33663  -1.29207  -1.23909  -1.23329
  Beta  occ. eigenvalues --   -1.23038  -1.18969  -1.14641  -1.12310  -0.97621
  Beta  occ. eigenvalues --   -0.96806  -0.95668  -0.93082  -0.89867  -0.88058
  Beta  occ. eigenvalues --   -0.84883  -0.83941  -0.83367  -0.82061  -0.79912
  Beta  occ. eigenvalues --   -0.78912  -0.77774  -0.76467  -0.75744  -0.75019
  Beta  occ. eigenvalues --   -0.74454  -0.74123  -0.73886  -0.73411  -0.72687
  Beta  occ. eigenvalues --   -0.72264  -0.72191  -0.71279  -0.70876  -0.70373
  Beta  occ. eigenvalues --   -0.70037  -0.69478  -0.69256  -0.68737  -0.68636
  Beta  occ. eigenvalues --   -0.68417  -0.67735  -0.66528  -0.64793  -0.63102
  Beta  occ. eigenvalues --   -0.62803  -0.62401  -0.61223  -0.60835  -0.60541
  Beta  occ. eigenvalues --   -0.60253  -0.59693  -0.59277  -0.59241  -0.58804
  Beta  occ. eigenvalues --   -0.58759  -0.58511  -0.58246  -0.57738  -0.57642
  Beta  occ. eigenvalues --   -0.57594  -0.57487  -0.57013  -0.56637  -0.56434
  Beta  occ. eigenvalues --   -0.56253  -0.55925  -0.55681  -0.55136  -0.54777
  Beta  occ. eigenvalues --   -0.54584  -0.54340  -0.54137  -0.53993  -0.53624
  Beta  occ. eigenvalues --   -0.53198  -0.53125  -0.52908  -0.52631  -0.52527
  Beta  occ. eigenvalues --   -0.52451  -0.52255  -0.52231  -0.51646  -0.51600
  Beta  occ. eigenvalues --   -0.51290  -0.50990  -0.50937  -0.49660  -0.48779
  Beta  occ. eigenvalues --   -0.47518  -0.47254  -0.47079  -0.46299  -0.45793
  Beta  occ. eigenvalues --   -0.43785  -0.41834  -0.41388
  Beta virt. eigenvalues --   -0.25681  -0.04529  -0.00174   0.02002   0.02919
  Beta virt. eigenvalues --    0.04989   0.06253   0.06858   0.08822   0.09616
  Beta virt. eigenvalues --    0.10518   0.11218   0.12305   0.12860   0.13718

 Mulliken charges and spin densities:
               1          2
     1  C   -0.331733   0.009541
     2  C   -0.215808   0.086098
     3  C   -0.111770  -0.008644
     4  N   -0.339926   0.687891
     5  C    0.080810  -0.031898
     6  N   -0.627613   0.011801
     7  C    0.764265   0.000847
     8  F   -0.236816   0.000115
     9  F   -0.262038   0.000395
    10  C    0.432777   0.000586
    11  F   -0.246881   0.000027
    12  O   -0.526592   0.000028
    13  C    0.998184   0.000008
    14  F   -0.234802   0.000004
    15  F   -0.238396   0.000001
    16  F   -0.239813   0.000002
    17  C    0.821900   0.000133
    18  F   -0.239313  -0.000006
    19  F   -0.247092   0.000010
    20  F   -0.252939   0.000091
    21  C    0.860885   0.001210
    22  O   -0.468788  -0.004583
    23  N   -0.648459  -0.003852
    24  C    0.781324  -0.000543
    25  F   -0.251868   0.000191
    26  F   -0.245580  -0.000144
    27  C    0.423841   0.000463
    28  F   -0.260931   0.001059
    29  O   -0.505943   0.000386
    30  C    1.027986  -0.000017
    31  F   -0.233397  -0.000005
    32  F   -0.267634   0.000023
    33  F   -0.242692   0.000022
    34  C    0.820878  -0.000129
    35  F   -0.239640   0.000000
    36  F   -0.240251   0.000023
    37  F   -0.252015   0.000091
    38  C    0.858844  -0.135349
    39  O   -0.373460   0.268819
    40  H    0.143503  -0.000041
    41  H    0.155648   0.008475
    42  H    0.138195  -0.000184
    43  H    0.167072  -0.002899
    44  H    0.158018  -0.002112
    45  H    0.212092   0.015764
    46  H    0.226478   0.016032
    47  H    0.268341   0.064355
    48  H    0.241150   0.015919
 Sum of Mulliken charges =   1.00000   1.00000

 Dipole moment (field-independent basis, Debye):
    X=             -1.7695    Y=             13.2036    Z=              2.0674  Tot=             13.4811
 Quadrupole moment (field-independent basis, Debye-Ang):
   XX=           -203.5709   YY=           -169.6343   ZZ=           -201.5739
   XY=             -7.6810   XZ=             -0.8923   YZ=              0.1243

 Normal termination of Gaussian 09 at Sun Mar  3 18:26:22 2024.
