 Gaussian 09, Revision D.01,
 Gaussian 09:  ES64L-G09RevD.01 24-Apr-2013

 ----------------------------------------------------------------------
 #p CAM-B3LYP/6-31G(d,p) SCRF=(PCM,Solvent=Generic,Read) NoSymm out=wfn
 ----------------------------------------------------------------------

 -------------------
 Title A1303169710_0
 -------------------
 Symbolic Z-matrix:
 Charge =  0 Multiplicity = 1

                          Input orientation:
 ---------------------------------------------------------------------
 Center     Atomic      Atomic             Coordinates (Angstroms)
 Number     Number       Type             X           Y           Z
 ---------------------------------------------------------------------
      1          6           0       -0.707827    5.322522    0.833077
      2          6           0       -0.326324    3.901328    0.452995
      3          6           0       -0.678886    2.912423    1.563707
      4          7           0       -0.338115    1.537612    1.206229
      5          6           0       -1.193485    0.824836    0.312039
      6          7           0       -1.081152   -0.567099    0.603090
      7          6           0       -2.225483   -1.416907    0.317341
      8          9           0       -2.166819   -2.567480    1.032757
      9          9           0       -3.293026   -0.750521    0.857707
     10          6           0       -2.563231   -1.722461   -1.167645
     11          9           0       -2.738835   -0.533286   -1.834499
     12          8           0       -3.743695   -2.501786   -1.412963
     13          6           0       -4.906959   -1.980859   -0.832015
     14          9           0       -4.969051   -2.366449    0.453505
     15          9           0       -4.942552   -0.641273   -0.916986
     16          9           0       -5.973782   -2.483896   -1.481758
     17          6           0       -1.393372   -2.447234   -1.822290
     18          9           0       -1.677356   -2.726631   -3.123591
     19          9           0       -1.098265   -3.619203   -1.228533
     20          9           0       -0.276370   -1.679922   -1.842519
     21          6           0        0.177267   -1.092306    0.753165
     22          8           0        0.338941   -2.305231    0.782105
     23          7           0        1.205785   -0.186732    0.866729
     24          6           0        2.573717   -0.668871    1.032888
     25          9           0        2.770151   -0.983223    2.345278
     26          9           0        3.416788    0.377679    0.781376
     27          6           0        3.060868   -1.853672    0.145620
     28          9           0        2.647040   -3.038416    0.713689
     29          8           0        2.495950   -1.905750   -1.173306
     30          6           0        3.008047   -0.957742   -2.068953
     31          9           0        2.955013    0.265236   -1.523120
     32          9           0        4.266553   -1.269091   -2.404232
     33          9           0        2.248265   -0.958948   -3.180564
     34          6           0        4.594696   -1.875881    0.233799
     35          9           0        5.097407   -2.920447   -0.473083
     36          9           0        5.172701   -0.761548   -0.267095
     37          9           0        5.034863   -2.015511    1.503943
     38          6           0        0.951840    1.068270    1.398360
     39          8           0        1.777415    1.735729    2.016838
     40          1           0       -0.196208    5.636769    1.748238
     41          1           0       -0.429672    6.015502    0.032822
     42          1           0       -1.788086    5.407384    0.993978
     43          1           0       -0.842718    3.626045   -0.474156
     44          1           0        0.747771    3.858913    0.238393
     45          1           0       -0.140611    3.183019    2.480139
     46          1           0       -1.750418    2.949777    1.796599
     47          1           0       -0.876201    1.010367   -0.721255
     48          1           0       -2.222578    1.164967    0.452155
 ---------------------------------------------------------------------

 SCF Done:  E(RCAM-B3LYP) =  -2800.38223835     A.U. after   13 cycles

 Alpha  occ. eigenvalues --  -24.84307 -24.84303 -24.83998 -24.83997 -24.83790
 Alpha  occ. eigenvalues --  -24.83772 -24.83695 -24.83284 -24.83266 -24.82930
 Alpha  occ. eigenvalues --  -24.82848 -24.82761 -24.82741 -24.82304 -24.82173
 Alpha  occ. eigenvalues --  -24.81741 -24.81672 -24.81360 -19.33345 -19.32914
 Alpha  occ. eigenvalues --  -19.22607 -19.21545 -14.51271 -14.49894 -14.46688
 Alpha  occ. eigenvalues --  -10.59808 -10.59792 -10.55595 -10.54748 -10.52945
 Alpha  occ. eigenvalues --  -10.52163 -10.49239 -10.48523 -10.44860 -10.43169
 Alpha  occ. eigenvalues --  -10.36991 -10.31279 -10.26927 -10.25736  -1.43616
 Alpha  occ. eigenvalues --   -1.43317  -1.41959  -1.41172  -1.39136  -1.37882
 Alpha  occ. eigenvalues --   -1.36326  -1.34309  -1.33872  -1.33731  -1.33562
 Alpha  occ. eigenvalues --   -1.33257  -1.33235  -1.32147  -1.32030  -1.31842
 Alpha  occ. eigenvalues --   -1.31516  -1.30683  -1.20873  -1.20625  -1.20204
 Alpha  occ. eigenvalues --   -1.15697  -1.10200  -1.07230  -1.03560  -0.93758
 Alpha  occ. eigenvalues --   -0.92231  -0.88588  -0.85640  -0.84522  -0.82190
 Alpha  occ. eigenvalues --   -0.81433  -0.81132  -0.79218  -0.78308  -0.75869
 Alpha  occ. eigenvalues --   -0.74860  -0.73148  -0.72919  -0.72263  -0.71330
 Alpha  occ. eigenvalues --   -0.71005  -0.70824  -0.70306  -0.69906  -0.69462
 Alpha  occ. eigenvalues --   -0.68956  -0.68426  -0.68156  -0.67913  -0.67791
 Alpha  occ. eigenvalues --   -0.66886  -0.66106  -0.66035  -0.65238  -0.64102
 Alpha  occ. eigenvalues --   -0.62895  -0.62235  -0.60596  -0.59268  -0.58590
 Alpha  occ. eigenvalues --   -0.57683  -0.57453  -0.57426  -0.57143  -0.56728
 Alpha  occ. eigenvalues --   -0.56535  -0.56175  -0.55971  -0.55386  -0.55249
 Alpha  occ. eigenvalues --   -0.55097  -0.54905  -0.54736  -0.54478  -0.54068
 Alpha  occ. eigenvalues --   -0.53788  -0.53771  -0.53416  -0.53042  -0.52975
 Alpha  occ. eigenvalues --   -0.52788  -0.52599  -0.52034  -0.51881  -0.51595
 Alpha  occ. eigenvalues --   -0.51537  -0.51269  -0.51038  -0.50962  -0.50454
 Alpha  occ. eigenvalues --   -0.50379  -0.50103  -0.49854  -0.49665  -0.49462
 Alpha  occ. eigenvalues --   -0.49224  -0.49068  -0.48934  -0.48582  -0.48226
 Alpha  occ. eigenvalues --   -0.47716  -0.47399  -0.46384  -0.46078  -0.44856
 Alpha  occ. eigenvalues --   -0.44087  -0.42613  -0.42564  -0.40876  -0.38765
 Alpha  occ. eigenvalues --   -0.37299  -0.36464  -0.35309  -0.32826
 Alpha virt. eigenvalues --    0.02527   0.04996   0.06479   0.07642   0.08008
 Alpha virt. eigenvalues --    0.08946   0.12045   0.13273   0.15740   0.16111
 Alpha virt. eigenvalues --    0.16244   0.16982   0.17905   0.18445   0.18744

 Mulliken charges:
               1
     1  C   -0.325751
     2  C   -0.189112
     3  C   -0.053783
     4  N   -0.521561
     5  C    0.107581
     6  N   -0.581408
     7  C    0.735902
     8  F   -0.238013
     9  F   -0.279504
    10  C    0.425298
    11  F   -0.274801
    12  O   -0.513171
    13  C    1.000748
    14  F   -0.243052
    15  F   -0.248426
    16  F   -0.238754
    17  C    0.815820
    18  F   -0.254681
    19  F   -0.228620
    20  F   -0.249888
    21  C    0.838468
    22  O   -0.507086
    23  N   -0.658619
    24  C    0.791526
    25  F   -0.256037
    26  F   -0.270876
    27  C    0.423480
    28  F   -0.262759
    29  O   -0.501406
    30  C    0.974036
    31  F   -0.243413
    32  F   -0.234928
    33  F   -0.241698
    34  C    0.807150
    35  F   -0.259314
    36  F   -0.249337
    37  F   -0.243241
    38  C    0.812523
    39  O   -0.513601
    40  H    0.117999
    41  H    0.115191
    42  H    0.107608
    43  H    0.101077
    44  H    0.126138
    45  H    0.152793
    46  H    0.119488
    47  H    0.144962
    48  H    0.165054
 Sum of Mulliken charges =   0.00000

 Dipole moment (field-independent basis, Debye):
    X=             -4.0151    Y=              4.4332    Z=             -1.7076  Tot=              6.2201
 Quadrupole moment (field-independent basis, Debye-Ang):
   XX=           -216.3210   YY=           -211.3147   ZZ=           -213.7809
   XY=             -5.9307   XZ=             -7.6463   YZ=              0.1449

 Normal termination of Gaussian 09 at Tue Mar  5 18:29:34 2024.
