 Gaussian 09, Revision D.01,
 Gaussian 09:  ES64L-G09RevD.01 24-Apr-2013

 ----------------------------------------------------------------------
 #p CAM-B3LYP/6-31G(d,p) SCRF=(PCM,Solvent=Generic,Read) NoSymm out=wfn
 ----------------------------------------------------------------------

 -------------------
 Title A895623831_p1
 -------------------
 Symbolic Z-matrix:
 Charge =  1 Multiplicity = 2

                          Input orientation:
 ---------------------------------------------------------------------
 Center     Atomic      Atomic             Coordinates (Angstroms)
 Number     Number       Type             X           Y           Z
 ---------------------------------------------------------------------
      1          8           0       -2.595586   -1.958000    0.908312
      2          6           0       -1.410194   -1.667090    0.824955
      3          7           0       -0.463762   -2.642644    0.756750
      4          6           0        0.820890   -2.472024    0.325805
      5          8           0        1.497472   -3.456400    0.054303
      6          7           0        1.234446   -1.161336    0.205538
      7          6           0        2.671902   -0.956599    0.062404
      8          9           0        3.221635   -1.271258    1.274692
      9          9           0        3.183763   -1.855301   -0.824832
     10          6           0        3.216052    0.436439   -0.354339
     11          9           0        2.766261    1.369125    0.538196
     12          8           0        4.644555    0.415017   -0.207375
     13          6           0        5.268742    1.555995   -0.731684
     14          9           0        6.513199    1.636789   -0.227801
     15          9           0        5.348947    1.439661   -2.066960
     16          9           0        4.594068    2.669756   -0.405956
     17          6           0        2.671152    0.717878   -1.760708
     18          9           0        3.161511   -0.134671   -2.683888
     19          9           0        2.980913    1.969868   -2.172535
     20          9           0        1.320523    0.635344   -1.806947
     21          6           0        0.466883   -0.201367    0.954172
     22          7           0       -0.942112   -0.384589    0.744779
     23          6           0       -1.806167    0.719037    1.133889
     24          9           0       -1.117319    1.872042    0.857628
     25          9           0       -1.876388    0.701092    2.498897
     26          6           0       -3.236944    0.889699    0.545287
     27          9           0       -3.655727    2.154533    0.897319
     28          8           0       -4.161267    0.024130    1.199582
     29          6           0       -5.389192   -0.071463    0.536165
     30          9           0       -5.868067    1.149552    0.245133
     31          9           0       -5.241722   -0.785071   -0.592225
     32          9           0       -6.269516   -0.701007    1.336324
     33          6           0       -3.081563    0.838999   -0.979987
     34          9           0       -2.129144    1.697891   -1.417909
     35          9           0       -2.733688   -0.386105   -1.430662
     36          9           0       -4.223669    1.183719   -1.619305
     37          1           0       -0.800870   -3.595363    0.751768
     38          1           0        0.694350   -0.302984    2.022115
     39          1           0        0.725636    0.797406    0.609098
 ---------------------------------------------------------------------

 SCF Done:  E(UCAM-B3LYP) =  -2682.19798907     A.U. after   41 cycles

 Alpha  occ. eigenvalues --  -24.90116 -24.88436 -24.88336 -24.88329 -24.87151
 Alpha  occ. eigenvalues --  -24.87085 -24.86362 -24.86331 -24.86269 -24.86032
 Alpha  occ. eigenvalues --  -24.85917 -24.85856 -24.85639 -24.85205 -24.85147
 Alpha  occ. eigenvalues --  -24.85093 -24.85046 -24.84910 -19.46959 -19.36797
 Alpha  occ. eigenvalues --  -19.34981 -19.30757 -14.61785 -14.59580 -14.56152
 Alpha  occ. eigenvalues --  -10.62390 -10.61251 -10.59685 -10.59449 -10.58212
 Alpha  occ. eigenvalues --  -10.57909 -10.56708 -10.54320 -10.52010 -10.51608
 Alpha  occ. eigenvalues --  -10.44591  -1.46586  -1.45336  -1.45153  -1.45121
 Alpha  occ. eigenvalues --   -1.44115  -1.42516  -1.40972  -1.38092  -1.37343
 Alpha  occ. eigenvalues --   -1.37284  -1.37118  -1.36208  -1.36067  -1.35638
 Alpha  occ. eigenvalues --   -1.35400  -1.35207  -1.35129  -1.34910  -1.34398
 Alpha  occ. eigenvalues --   -1.26970  -1.24288  -1.22790  -1.21296  -1.15119
 Alpha  occ. eigenvalues --   -1.13647  -0.98998  -0.97016  -0.92368  -0.90797
 Alpha  occ. eigenvalues --   -0.89040  -0.86536  -0.85093  -0.83605  -0.81173
 Alpha  occ. eigenvalues --   -0.79805  -0.79105  -0.77575  -0.76487  -0.75795
 Alpha  occ. eigenvalues --   -0.75246  -0.74761  -0.73825  -0.73373  -0.73166
 Alpha  occ. eigenvalues --   -0.72458  -0.72150  -0.72059  -0.71807  -0.71622
 Alpha  occ. eigenvalues --   -0.71000  -0.70996  -0.70704  -0.70059  -0.69278
 Alpha  occ. eigenvalues --   -0.68951  -0.68322  -0.67772  -0.66206  -0.66163
 Alpha  occ. eigenvalues --   -0.63638  -0.62293  -0.61494  -0.61260  -0.60801
 Alpha  occ. eigenvalues --   -0.60653  -0.60448  -0.60062  -0.59551  -0.59161
 Alpha  occ. eigenvalues --   -0.59139  -0.59005  -0.58644  -0.58537  -0.58373
 Alpha  occ. eigenvalues --   -0.58184  -0.58098  -0.57572  -0.57175  -0.56890
 Alpha  occ. eigenvalues --   -0.56415  -0.56241  -0.55868  -0.55269  -0.55109
 Alpha  occ. eigenvalues --   -0.55045  -0.54647  -0.54352  -0.54270  -0.53880
 Alpha  occ. eigenvalues --   -0.53825  -0.53457  -0.52971  -0.52841  -0.52765
 Alpha  occ. eigenvalues --   -0.52220  -0.51824  -0.51635  -0.51389  -0.50689
 Alpha  occ. eigenvalues --   -0.49986  -0.48354  -0.48130  -0.47706  -0.46524
 Alpha  occ. eigenvalues --   -0.44094  -0.43024
 Alpha virt. eigenvalues --   -0.09388  -0.00026   0.00490   0.02009   0.03682
 Alpha virt. eigenvalues --    0.05716   0.07111   0.08017   0.09335   0.10658
 Alpha virt. eigenvalues --    0.11791   0.12586   0.13298   0.15337   0.16068

  Beta  occ. eigenvalues --  -24.90015 -24.88430 -24.88331 -24.88313 -24.87150
  Beta  occ. eigenvalues --  -24.87080 -24.86361 -24.86330 -24.86268 -24.86032
  Beta  occ. eigenvalues --  -24.85916 -24.85856 -24.85640 -24.85205 -24.85147
  Beta  occ. eigenvalues --  -24.85093 -24.85045 -24.84910 -19.44862 -19.36795
  Beta  occ. eigenvalues --  -19.34970 -19.30499 -14.61517 -14.59434 -14.56153
  Beta  occ. eigenvalues --  -10.62390 -10.61252 -10.59686 -10.59465 -10.58212
  Beta  occ. eigenvalues --  -10.58082 -10.56709 -10.54302 -10.52010 -10.51629
  Beta  occ. eigenvalues --  -10.44592  -1.46563  -1.45305  -1.45152  -1.45015
  Beta  occ. eigenvalues --   -1.44114  -1.42512  -1.40947  -1.37978  -1.37293
  Beta  occ. eigenvalues --   -1.37141  -1.36206  -1.36067  -1.35636  -1.35398
  Beta  occ. eigenvalues --   -1.35206  -1.35128  -1.34909  -1.34398  -1.33702
  Beta  occ. eigenvalues --   -1.26227  -1.24280  -1.22746  -1.20400  -1.14494
  Beta  occ. eigenvalues --   -1.13325  -0.98888  -0.96937  -0.92057  -0.90391
  Beta  occ. eigenvalues --   -0.88625  -0.86487  -0.85032  -0.83160  -0.81065
  Beta  occ. eigenvalues --   -0.79466  -0.78785  -0.77456  -0.76436  -0.75729
  Beta  occ. eigenvalues --   -0.75196  -0.74658  -0.73592  -0.72985  -0.72631
  Beta  occ. eigenvalues --   -0.72136  -0.72074  -0.71717  -0.71543  -0.71446
  Beta  occ. eigenvalues --   -0.70947  -0.70689  -0.70583  -0.70004  -0.68870
  Beta  occ. eigenvalues --   -0.68681  -0.68099  -0.67701  -0.65754  -0.64964
  Beta  occ. eigenvalues --   -0.62663  -0.61599  -0.61312  -0.60838  -0.60620
  Beta  occ. eigenvalues --   -0.60360  -0.60065  -0.59480  -0.59354  -0.59142
  Beta  occ. eigenvalues --   -0.59085  -0.58694  -0.58584  -0.58469  -0.58303
  Beta  occ. eigenvalues --   -0.58032  -0.57560  -0.57147  -0.56831  -0.56482
  Beta  occ. eigenvalues --   -0.56197  -0.55837  -0.55260  -0.55116  -0.55060
  Beta  occ. eigenvalues --   -0.54632  -0.54342  -0.54206  -0.53874  -0.53827
  Beta  occ. eigenvalues --   -0.53467  -0.53181  -0.52843  -0.52818  -0.52214
  Beta  occ. eigenvalues --   -0.51824  -0.51615  -0.51372  -0.50196  -0.49922
  Beta  occ. eigenvalues --   -0.48371  -0.48018  -0.47399  -0.45617  -0.43204
  Beta  occ. eigenvalues --   -0.42498
  Beta virt. eigenvalues --   -0.29653  -0.08742   0.00069   0.00550   0.02060
  Beta virt. eigenvalues --    0.03753   0.05746   0.07203   0.08077   0.09422
  Beta virt. eigenvalues --    0.11148   0.11827   0.12626   0.13319   0.15474

 Mulliken charges and spin densities:
               1          2
     1  O   -0.431914   0.098277
     2  C    0.853046  -0.017986
     3  N   -0.606662   0.057096
     4  C    0.938133  -0.087048
     5  O   -0.160993   0.789488
     6  N   -0.525904   0.118014
     7  C    0.733932  -0.009738
     8  F   -0.241834   0.004857
     9  F   -0.232993   0.024033
    10  C    0.406019   0.006129
    11  F   -0.248119   0.001342
    12  O   -0.500964   0.000203
    13  C    1.004694   0.000192
    14  F   -0.229433   0.000054
    15  F   -0.238050   0.000060
    16  F   -0.239630   0.000011
    17  C    0.827569  -0.000086
    18  F   -0.228550   0.000131
    19  F   -0.241350   0.000261
    20  F   -0.241593   0.000988
    21  C    0.082956  -0.002718
    22  N   -0.568551   0.001848
    23  C    0.751172  -0.001202
    24  F   -0.269308   0.001082
    25  F   -0.257657  -0.000165
    26  C    0.423773  -0.000257
    27  F   -0.264809   0.000051
    28  O   -0.483038   0.003193
    29  C    0.998436  -0.000184
    30  F   -0.243197   0.000187
    31  F   -0.244823   0.000013
    32  F   -0.236236   0.000008
    33  C    0.819431  -0.000041
    34  F   -0.244173  -0.000005
    35  F   -0.242016   0.000318
    36  F   -0.247460   0.000004
    37  H    0.381941  -0.002195
    38  H    0.229753   0.006891
    39  H    0.218400   0.006897
 Sum of Mulliken charges =   1.00000   1.00000

 Dipole moment (field-independent basis, Debye):
    X=              4.4434    Y=             -8.0061    Z=              2.2869  Tot=              9.4378
 Quadrupole moment (field-independent basis, Debye-Ang):
   XX=           -178.6696   YY=           -158.5853   ZZ=           -183.3861
   XY=             -0.4260   XZ=              0.9279   YZ=             -4.6633

 Normal termination of Gaussian 09 at Sun Mar  3 18:04:46 2024.
