 Gaussian 09, Revision D.01,
 Gaussian 09:  ES64L-G09RevD.01 24-Apr-2013

 ----------------------------------------------------------------------
 #p CAM-B3LYP/6-31G(d,p) SCRF=(PCM,Solvent=Generic,Read) NoSymm out=wfn
 ----------------------------------------------------------------------

 ------------------
 Title A895623831_0
 ------------------
 Symbolic Z-matrix:
 Charge =  0 Multiplicity = 1

                          Input orientation:
 ---------------------------------------------------------------------
 Center     Atomic      Atomic             Coordinates (Angstroms)
 Number     Number       Type             X           Y           Z
 ---------------------------------------------------------------------
      1          8           0       -2.595586   -1.958000    0.908312
      2          6           0       -1.410194   -1.667090    0.824955
      3          7           0       -0.463762   -2.642644    0.756750
      4          6           0        0.820890   -2.472024    0.325805
      5          8           0        1.497472   -3.456400    0.054303
      6          7           0        1.234446   -1.161336    0.205538
      7          6           0        2.671902   -0.956599    0.062404
      8          9           0        3.221635   -1.271258    1.274692
      9          9           0        3.183763   -1.855301   -0.824832
     10          6           0        3.216052    0.436439   -0.354339
     11          9           0        2.766261    1.369125    0.538196
     12          8           0        4.644555    0.415017   -0.207375
     13          6           0        5.268742    1.555995   -0.731684
     14          9           0        6.513199    1.636789   -0.227801
     15          9           0        5.348947    1.439661   -2.066960
     16          9           0        4.594068    2.669756   -0.405956
     17          6           0        2.671152    0.717878   -1.760708
     18          9           0        3.161511   -0.134671   -2.683888
     19          9           0        2.980913    1.969868   -2.172535
     20          9           0        1.320523    0.635344   -1.806947
     21          6           0        0.466883   -0.201367    0.954172
     22          7           0       -0.942112   -0.384589    0.744779
     23          6           0       -1.806167    0.719037    1.133889
     24          9           0       -1.117319    1.872042    0.857628
     25          9           0       -1.876388    0.701092    2.498897
     26          6           0       -3.236944    0.889699    0.545287
     27          9           0       -3.655727    2.154533    0.897319
     28          8           0       -4.161267    0.024130    1.199582
     29          6           0       -5.389192   -0.071463    0.536165
     30          9           0       -5.868067    1.149552    0.245133
     31          9           0       -5.241722   -0.785071   -0.592225
     32          9           0       -6.269516   -0.701007    1.336324
     33          6           0       -3.081563    0.838999   -0.979987
     34          9           0       -2.129144    1.697891   -1.417909
     35          9           0       -2.733688   -0.386105   -1.430662
     36          9           0       -4.223669    1.183719   -1.619305
     37          1           0       -0.800870   -3.595363    0.751768
     38          1           0        0.694350   -0.302984    2.022115
     39          1           0        0.725636    0.797406    0.609098
 ---------------------------------------------------------------------

 SCF Done:  E(RCAM-B3LYP) =  -2682.52398296     A.U. after   13 cycles

 Alpha  occ. eigenvalues --  -24.84664 -24.84506 -24.84074 -24.83983 -24.83875
 Alpha  occ. eigenvalues --  -24.83701 -24.83595 -24.83486 -24.83472 -24.83411
 Alpha  occ. eigenvalues --  -24.83223 -24.83160 -24.83111 -24.82939 -24.82483
 Alpha  occ. eigenvalues --  -24.82369 -24.82013 -24.81939 -19.33539 -19.32202
 Alpha  occ. eigenvalues --  -19.22212 -19.22115 -14.49922 -14.49851 -14.48487
 Alpha  occ. eigenvalues --  -10.59968 -10.59106 -10.56282 -10.55639 -10.52628
 Alpha  occ. eigenvalues --  -10.52503 -10.49779 -10.49025 -10.43892 -10.43824
 Alpha  occ. eigenvalues --  -10.37704  -1.43706  -1.42935  -1.42500  -1.41789
 Alpha  occ. eigenvalues --   -1.38951  -1.38527  -1.36863  -1.34751  -1.33944
 Alpha  occ. eigenvalues --   -1.33864  -1.33510  -1.33207  -1.32993  -1.32944
 Alpha  occ. eigenvalues --   -1.32771  -1.32350  -1.31530  -1.31345  -1.21057
 Alpha  occ. eigenvalues --   -1.20375  -1.19898  -1.16092  -1.10728  -1.05621
 Alpha  occ. eigenvalues --   -1.04671  -0.94036  -0.93258  -0.85139  -0.83599
 Alpha  occ. eigenvalues --   -0.82873  -0.82371  -0.81864  -0.77757  -0.77270
 Alpha  occ. eigenvalues --   -0.75026  -0.74092  -0.73099  -0.72714  -0.71600
 Alpha  occ. eigenvalues --   -0.71282  -0.70741  -0.70080  -0.69895  -0.69629
 Alpha  occ. eigenvalues --   -0.69357  -0.69121  -0.68445  -0.67887  -0.66597
 Alpha  occ. eigenvalues --   -0.66532  -0.65834  -0.65469  -0.64904  -0.63340
 Alpha  occ. eigenvalues --   -0.62659  -0.61883  -0.60946  -0.59145  -0.58530
 Alpha  occ. eigenvalues --   -0.58078  -0.57634  -0.57610  -0.56869  -0.56798
 Alpha  occ. eigenvalues --   -0.56298  -0.56153  -0.55894  -0.55737  -0.55433
 Alpha  occ. eigenvalues --   -0.55087  -0.54661  -0.54584  -0.54325  -0.53681
 Alpha  occ. eigenvalues --   -0.53517  -0.53354  -0.53001  -0.52799  -0.52649
 Alpha  occ. eigenvalues --   -0.52465  -0.52062  -0.51891  -0.51833  -0.51396
 Alpha  occ. eigenvalues --   -0.51352  -0.51084  -0.50863  -0.50669  -0.50284
 Alpha  occ. eigenvalues --   -0.50196  -0.50007  -0.49638  -0.49536  -0.49400
 Alpha  occ. eigenvalues --   -0.49034  -0.48882  -0.48389  -0.46286  -0.45052
 Alpha  occ. eigenvalues --   -0.44897  -0.44455  -0.38193  -0.38064  -0.37382
 Alpha  occ. eigenvalues --   -0.35917  -0.35210
 Alpha virt. eigenvalues --    0.02045   0.05474   0.05845   0.07403   0.09313
 Alpha virt. eigenvalues --    0.09846   0.12804   0.13491   0.14946   0.15760
 Alpha virt. eigenvalues --    0.17375   0.17845   0.18955   0.19416   0.20029

 Mulliken charges:
               1
     1  O   -0.518548
     2  C    0.797196
     3  N   -0.615682
     4  C    0.796889
     5  O   -0.511245
     6  N   -0.567845
     7  C    0.742591
     8  F   -0.271759
     9  F   -0.256495
    10  C    0.399477
    11  F   -0.260772
    12  O   -0.508490
    13  C    0.997312
    14  F   -0.236119
    15  F   -0.242667
    16  F   -0.243826
    17  C    0.820336
    18  F   -0.235380
    19  F   -0.252772
    20  F   -0.240939
    21  C    0.101363
    22  N   -0.567417
    23  C    0.746208
    24  F   -0.280882
    25  F   -0.270520
    26  C    0.422320
    27  F   -0.275909
    28  O   -0.479039
    29  C    0.993110
    30  F   -0.248301
    31  F   -0.246001
    32  F   -0.240973
    33  C    0.816491
    34  F   -0.248360
    35  F   -0.238418
    36  F   -0.254911
    37  H    0.331487
    38  H    0.174803
    39  H    0.173689
 Sum of Mulliken charges =   0.00000

 Dipole moment (field-independent basis, Debye):
    X=              1.0898    Y=              1.9883    Z=              0.7984  Tot=              2.4039
 Quadrupole moment (field-independent basis, Debye-Ang):
   XX=           -203.2758   YY=           -196.5840   ZZ=           -189.0600
   XY=              8.2139   XZ=              3.3173   YZ=             -1.8445

 Normal termination of Gaussian 09 at Sun Mar  3 18:02:22 2024.
