 Gaussian 09, Revision D.01,
 Gaussian 09:  ES64L-G09RevD.01 24-Apr-2013

 ----------------------------------------------------------------------
 #p CAM-B3LYP/6-31G(d,p) SCRF=(PCM,Solvent=Generic,Read) NoSymm out=wfn
 ----------------------------------------------------------------------

 --------------------
 Title A1320413502_p1
 --------------------
 Symbolic Z-matrix:
 Charge =  1 Multiplicity = 2

                          Input orientation:
 ---------------------------------------------------------------------
 Center     Atomic      Atomic             Coordinates (Angstroms)
 Number     Number       Type             X           Y           Z
 ---------------------------------------------------------------------
      1          6           0       -1.724151    2.541592   -2.620660
      2          6           0       -0.552061    2.796488   -1.669659
      3          6           0       -0.777169    4.054762   -0.825280
      4          7           0       -0.232059    1.600429   -0.858729
      5          6           0        0.761428    0.756889   -1.324505
      6          8           0        1.474866    1.056150   -2.279191
      7          7           0        0.899847   -0.440934   -0.666751
      8          6           0        1.877882   -1.385965   -1.190736
      9          9           0        1.585680   -2.653024   -0.768803
     10          9           0        1.659144   -1.476084   -2.545610
     11          6           0        3.392251   -1.117355   -0.965659
     12          9           0        3.714670    0.121593   -1.438777
     13          8           0        4.117653   -2.055699   -1.779916
     14          6           0        5.503077   -2.028128   -1.567481
     15          9           0        6.110757   -2.610394   -2.617583
     16          9           0        5.789273   -2.734741   -0.461155
     17          9           0        5.958589   -0.772304   -1.442899
     18          6           0        3.670277   -1.165550    0.537635
     19          9           0        4.961707   -0.872379    0.820377
     20          9           0        2.933888   -0.244496    1.204780
     21          9           0        3.416311   -2.376137    1.070675
     22          6           0        0.334762   -0.671442    0.560806
     23          8           0        0.635382   -1.655173    1.230653
     24          7           0       -0.573127    0.251273    1.006454
     25          6           0       -1.328277   -0.067399    2.212022
     26          9           0       -1.845124    1.086750    2.725049
     27          9           0       -0.450150   -0.470826    3.174373
     28          6           0       -2.452260   -1.120281    2.031272
     29          9           0       -1.889548   -2.319294    1.698343
     30          8           0       -3.266861   -0.766603    0.908323
     31          6           0       -4.447355   -1.519193    0.819227
     32          9           0       -4.958592   -1.363931   -0.415927
     33          9           0       -4.205127   -2.822435    1.025460
     34          9           0       -5.335507   -1.062911    1.715948
     35          6           0       -3.136863   -1.224204    3.401448
     36          9           0       -3.798601   -0.089589    3.721490
     37          9           0       -4.050354   -2.224956    3.425317
     38          9           0       -2.270481   -1.483190    4.404597
     39          6           0       -1.070648    1.221126    0.173225
     40          8           0       -2.191565    1.700359    0.324644
     41          1           0       -1.533043    1.661744   -3.244456
     42          1           0       -1.875170    3.399419   -3.284564
     43          1           0       -2.661018    2.368701   -2.082470
     44          1           0        0.316953    3.020363   -2.300339
     45          1           0       -0.831706    4.939495   -1.469140
     46          1           0       -1.706693    4.016583   -0.250470
     47          1           0        0.049115    4.200898   -0.121358
 ---------------------------------------------------------------------

 SCF Done:  E(UCAM-B3LYP) =  -2874.07241433     A.U. after   33 cycles

 Alpha  occ. eigenvalues --  -24.87730 -24.87233 -24.86877 -24.86655 -24.86256
 Alpha  occ. eigenvalues --  -24.86178 -24.86004 -24.85994 -24.85917 -24.85862
 Alpha  occ. eigenvalues --  -24.85691 -24.85617 -24.85512 -24.85435 -24.85380
 Alpha  occ. eigenvalues --  -24.85159 -24.84963 -24.84946 -19.37079 -19.36265
 Alpha  occ. eigenvalues --  -19.35845 -19.35420 -19.30059 -14.67198 -14.60058
 Alpha  occ. eigenvalues --  -14.60045 -10.62127 -10.61469 -10.58462 -10.58122
 Alpha  occ. eigenvalues --  -10.57950 -10.57864 -10.55757 -10.55269 -10.52741
 Alpha  occ. eigenvalues --  -10.52467 -10.52440 -10.41718 -10.33382 -10.32266
 Alpha  occ. eigenvalues --   -1.45635  -1.45463  -1.44372  -1.44353  -1.43123
 Alpha  occ. eigenvalues --   -1.42560  -1.38942  -1.38817  -1.36288  -1.36191
 Alpha  occ. eigenvalues --   -1.35839  -1.35578  -1.35335  -1.35295  -1.34968
 Alpha  occ. eigenvalues --   -1.34723  -1.34524  -1.34373  -1.33064  -1.28595
 Alpha  occ. eigenvalues --   -1.25821  -1.23759  -1.22875  -1.20658  -1.16228
 Alpha  occ. eigenvalues --   -1.16032  -0.98968  -0.97014  -0.96896  -0.91947
 Alpha  occ. eigenvalues --   -0.90868  -0.87221  -0.85785  -0.85045  -0.84880
 Alpha  occ. eigenvalues --   -0.84198  -0.82967  -0.80622  -0.79117  -0.78333
 Alpha  occ. eigenvalues --   -0.76249  -0.75900  -0.75560  -0.74899  -0.73615
 Alpha  occ. eigenvalues --   -0.73358  -0.72782  -0.72295  -0.71950  -0.71469
 Alpha  occ. eigenvalues --   -0.71273  -0.71061  -0.70957  -0.70038  -0.69978
 Alpha  occ. eigenvalues --   -0.69277  -0.68985  -0.68392  -0.67900  -0.67095
 Alpha  occ. eigenvalues --   -0.65939  -0.63853  -0.63248  -0.63124  -0.62724
 Alpha  occ. eigenvalues --   -0.62650  -0.60758  -0.59980  -0.59953  -0.59700
 Alpha  occ. eigenvalues --   -0.59494  -0.59432  -0.59276  -0.58899  -0.58712
 Alpha  occ. eigenvalues --   -0.58557  -0.58208  -0.57834  -0.57781  -0.57672
 Alpha  occ. eigenvalues --   -0.57227  -0.56940  -0.56786  -0.56455  -0.56068
 Alpha  occ. eigenvalues --   -0.55428  -0.55349  -0.55178  -0.54829  -0.54443
 Alpha  occ. eigenvalues --   -0.54351  -0.54282  -0.53846  -0.53457  -0.53363
 Alpha  occ. eigenvalues --   -0.53262  -0.52904  -0.52708  -0.52493  -0.52364
 Alpha  occ. eigenvalues --   -0.51995  -0.51833  -0.51599  -0.51325  -0.51277
 Alpha  occ. eigenvalues --   -0.51244  -0.50661  -0.49803  -0.49043  -0.48656
 Alpha  occ. eigenvalues --   -0.48103  -0.47882  -0.47548  -0.47083  -0.46281
 Alpha  occ. eigenvalues --   -0.44580  -0.43167
 Alpha virt. eigenvalues --   -0.09303  -0.07087   0.00488   0.01387   0.02597
 Alpha virt. eigenvalues --    0.03637   0.05642   0.08313   0.08343   0.09309
 Alpha virt. eigenvalues --    0.11638   0.12467   0.13093   0.14070   0.14465

  Beta  occ. eigenvalues --  -24.87709 -24.87233 -24.86875 -24.86654 -24.86251
  Beta  occ. eigenvalues --  -24.86172 -24.86004 -24.85994 -24.85917 -24.85862
  Beta  occ. eigenvalues --  -24.85691 -24.85617 -24.85512 -24.85435 -24.85380
  Beta  occ. eigenvalues --  -24.85159 -24.84963 -24.84945 -19.36347 -19.36265
  Beta  occ. eigenvalues --  -19.35420 -19.35194 -19.30046 -14.66017 -14.60085
  Beta  occ. eigenvalues --  -14.60059 -10.62127 -10.61469 -10.58461 -10.58123
  Beta  occ. eigenvalues --  -10.57950 -10.57864 -10.55967 -10.55492 -10.52753
  Beta  occ. eigenvalues --  -10.52468 -10.52441 -10.41669 -10.33206 -10.32200
  Beta  occ. eigenvalues --   -1.45634  -1.45462  -1.44372  -1.44346  -1.43107
  Beta  occ. eigenvalues --   -1.42554  -1.38933  -1.38814  -1.36263  -1.36190
  Beta  occ. eigenvalues --   -1.35839  -1.35577  -1.35334  -1.35292  -1.34955
  Beta  occ. eigenvalues --   -1.34719  -1.34523  -1.34372  -1.32141  -1.27568
  Beta  occ. eigenvalues --   -1.25447  -1.23751  -1.22873  -1.18702  -1.15855
  Beta  occ. eigenvalues --   -1.15633  -0.98675  -0.96989  -0.96603  -0.91618
  Beta  occ. eigenvalues --   -0.90824  -0.86959  -0.85734  -0.85026  -0.84399
  Beta  occ. eigenvalues --   -0.83771  -0.82909  -0.80527  -0.79111  -0.78164
  Beta  occ. eigenvalues --   -0.76139  -0.75889  -0.75497  -0.74853  -0.73587
  Beta  occ. eigenvalues --   -0.73334  -0.72756  -0.71992  -0.71739  -0.71291
  Beta  occ. eigenvalues --   -0.71119  -0.71057  -0.70400  -0.70018  -0.69899
  Beta  occ. eigenvalues --   -0.69247  -0.68417  -0.68097  -0.67856  -0.66481
  Beta  occ. eigenvalues --   -0.65232  -0.63071  -0.62967  -0.62821  -0.61905
  Beta  occ. eigenvalues --   -0.61631  -0.60543  -0.59911  -0.59890  -0.59526
  Beta  occ. eigenvalues --   -0.59386  -0.59233  -0.59117  -0.58875  -0.58598
  Beta  occ. eigenvalues --   -0.58409  -0.58185  -0.57795  -0.57728  -0.57603
  Beta  occ. eigenvalues --   -0.56944  -0.56852  -0.56587  -0.56438  -0.55535
  Beta  occ. eigenvalues --   -0.55327  -0.55193  -0.54893  -0.54777  -0.54320
  Beta  occ. eigenvalues --   -0.54267  -0.54092  -0.53655  -0.53421  -0.53256
  Beta  occ. eigenvalues --   -0.53097  -0.52852  -0.52638  -0.52446  -0.52338
  Beta  occ. eigenvalues --   -0.51880  -0.51761  -0.51424  -0.51271  -0.51228
  Beta  occ. eigenvalues --   -0.49951  -0.49278  -0.48985  -0.48381  -0.47853
  Beta  occ. eigenvalues --   -0.47294  -0.47249  -0.46371  -0.45758  -0.44112
  Beta  occ. eigenvalues --   -0.42907
  Beta virt. eigenvalues --   -0.29352  -0.08192  -0.05849   0.01054   0.01419
  Beta virt. eigenvalues --    0.02629   0.03801   0.05728   0.08472   0.08563
  Beta virt. eigenvalues --    0.09463   0.11708   0.12571   0.13225   0.14216

 Mulliken charges and spin densities:
               1          2
     1  C   -0.318893   0.096564
     2  C   -0.031043   0.018424
     3  C   -0.345096   0.031633
     4  N   -0.450880   0.544401
     5  C    0.891925  -0.128009
     6  O   -0.362872   0.257715
     7  N   -0.656431  -0.011193
     8  C    0.750437  -0.000520
     9  F   -0.231946   0.000286
    10  F   -0.256473   0.001277
    11  C    0.440447  -0.000247
    12  F   -0.253884   0.000923
    13  O   -0.506491   0.000054
    14  C    1.001484  -0.000006
    15  F   -0.234111  -0.000007
    16  F   -0.241797   0.000000
    17  F   -0.241520   0.000011
    18  C    0.820482  -0.000015
    19  F   -0.246200   0.000000
    20  F   -0.253647  -0.000016
    21  F   -0.228112  -0.000003
    22  C    0.875443  -0.005183
    23  O   -0.442438   0.005183
    24  N   -0.649241   0.005225
    25  C    0.763265  -0.001051
    26  F   -0.245405   0.004184
    27  F   -0.238168   0.000641
    28  C    0.440722   0.000111
    29  F   -0.249039   0.000135
    30  O   -0.516917   0.000024
    31  C    1.001986  -0.000021
    32  F   -0.236389   0.000002
    33  F   -0.237580  -0.000004
    34  F   -0.237803   0.000015
    35  C    0.822105  -0.000023
    36  F   -0.243008   0.000045
    37  F   -0.252225   0.000058
    38  F   -0.238501   0.000007
    39  C    0.894261  -0.124944
    40  O   -0.342654   0.284854
    41  H    0.164371  -0.002261
    42  H    0.191300   0.001455
    43  H    0.174749  -0.001980
    44  H    0.235600   0.010866
    45  H    0.183299   0.004131
    46  H    0.172861   0.000509
    47  H    0.164026   0.006751
 Sum of Mulliken charges =   1.00000   1.00000

 Dipole moment (field-independent basis, Debye):
    X=             -2.5599    Y=              9.6993    Z=             -5.0357  Tot=             11.2244
 Quadrupole moment (field-independent basis, Debye-Ang):
   XX=           -200.6706   YY=           -182.5771   ZZ=           -201.2519
   XY=             -4.8683   XZ=              5.6004   YZ=            -12.2898

 Normal termination of Gaussian 09 at Sun Mar  3 17:55:02 2024.
