 Gaussian 09, Revision D.01,
 Gaussian 09:  ES64L-G09RevD.01 24-Apr-2013

 ----------------------------------------------------------------------
 #p CAM-B3LYP/6-31G(d,p) SCRF=(PCM,Solvent=Generic,Read) NoSymm out=wfn
 ----------------------------------------------------------------------

 -------------------
 Title A1320413502_0
 -------------------
 Symbolic Z-matrix:
 Charge =  0 Multiplicity = 1

                          Input orientation:
 ---------------------------------------------------------------------
 Center     Atomic      Atomic             Coordinates (Angstroms)
 Number     Number       Type             X           Y           Z
 ---------------------------------------------------------------------
      1          6           0       -1.724151    2.541592   -2.620660
      2          6           0       -0.552061    2.796488   -1.669659
      3          6           0       -0.777169    4.054762   -0.825280
      4          7           0       -0.232059    1.600429   -0.858729
      5          6           0        0.761428    0.756889   -1.324505
      6          8           0        1.474866    1.056150   -2.279191
      7          7           0        0.899847   -0.440934   -0.666751
      8          6           0        1.877882   -1.385965   -1.190736
      9          9           0        1.585680   -2.653024   -0.768803
     10          9           0        1.659144   -1.476084   -2.545610
     11          6           0        3.392251   -1.117355   -0.965659
     12          9           0        3.714670    0.121593   -1.438777
     13          8           0        4.117653   -2.055699   -1.779916
     14          6           0        5.503077   -2.028128   -1.567481
     15          9           0        6.110757   -2.610394   -2.617583
     16          9           0        5.789273   -2.734741   -0.461155
     17          9           0        5.958589   -0.772304   -1.442899
     18          6           0        3.670277   -1.165550    0.537635
     19          9           0        4.961707   -0.872379    0.820377
     20          9           0        2.933888   -0.244496    1.204780
     21          9           0        3.416311   -2.376137    1.070675
     22          6           0        0.334762   -0.671442    0.560806
     23          8           0        0.635382   -1.655173    1.230653
     24          7           0       -0.573127    0.251273    1.006454
     25          6           0       -1.328277   -0.067399    2.212022
     26          9           0       -1.845124    1.086750    2.725049
     27          9           0       -0.450150   -0.470826    3.174373
     28          6           0       -2.452260   -1.120281    2.031272
     29          9           0       -1.889548   -2.319294    1.698343
     30          8           0       -3.266861   -0.766603    0.908323
     31          6           0       -4.447355   -1.519193    0.819227
     32          9           0       -4.958592   -1.363931   -0.415927
     33          9           0       -4.205127   -2.822435    1.025460
     34          9           0       -5.335507   -1.062911    1.715948
     35          6           0       -3.136863   -1.224204    3.401448
     36          9           0       -3.798601   -0.089589    3.721490
     37          9           0       -4.050354   -2.224956    3.425317
     38          9           0       -2.270481   -1.483190    4.404597
     39          6           0       -1.070648    1.221126    0.173225
     40          8           0       -2.191565    1.700359    0.324644
     41          1           0       -1.533043    1.661744   -3.244456
     42          1           0       -1.875170    3.399419   -3.284564
     43          1           0       -2.661018    2.368701   -2.082470
     44          1           0        0.316953    3.020363   -2.300339
     45          1           0       -0.831706    4.939495   -1.469140
     46          1           0       -1.706693    4.016583   -0.250470
     47          1           0        0.049115    4.200898   -0.121358
 ---------------------------------------------------------------------

 SCF Done:  E(RCAM-B3LYP) =  -2874.39920775     A.U. after   13 cycles

 Alpha  occ. eigenvalues --  -24.84330 -24.83757 -24.83655 -24.83640 -24.83553
 Alpha  occ. eigenvalues --  -24.83542 -24.83477 -24.83447 -24.83228 -24.83212
 Alpha  occ. eigenvalues --  -24.83136 -24.83132 -24.82969 -24.82910 -24.82906
 Alpha  occ. eigenvalues --  -24.82839 -24.82838 -24.82032 -19.33168 -19.32940
 Alpha  occ. eigenvalues --  -19.24231 -19.24144 -19.23917 -14.53346 -14.52942
 Alpha  occ. eigenvalues --  -14.50283 -10.59707 -10.59530 -10.55802 -10.55523
 Alpha  occ. eigenvalues --  -10.53582 -10.53544 -10.49198 -10.49150 -10.46860
 Alpha  occ. eigenvalues --  -10.45784 -10.45773 -10.32408 -10.25827 -10.25709
 Alpha  occ. eigenvalues --   -1.43370  -1.43275  -1.42124  -1.41856  -1.39241
 Alpha  occ. eigenvalues --   -1.38636  -1.35813  -1.35712  -1.33685  -1.33570
 Alpha  occ. eigenvalues --   -1.33450  -1.33430  -1.33143  -1.32885  -1.32519
 Alpha  occ. eigenvalues --   -1.32248  -1.31732  -1.31059  -1.23410  -1.20753
 Alpha  occ. eigenvalues --   -1.20395  -1.17976  -1.17937  -1.10120  -1.08684
 Alpha  occ. eigenvalues --   -1.06442  -0.94077  -0.93415  -0.89209  -0.85722
 Alpha  occ. eigenvalues --   -0.84064  -0.82699  -0.82167  -0.79957  -0.78859
 Alpha  occ. eigenvalues --   -0.77696  -0.77251  -0.75993  -0.74616  -0.73858
 Alpha  occ. eigenvalues --   -0.73073  -0.72549  -0.71959  -0.71080  -0.70634
 Alpha  occ. eigenvalues --   -0.70300  -0.69745  -0.69569  -0.68903  -0.68614
 Alpha  occ. eigenvalues --   -0.68021  -0.67296  -0.66971  -0.66801  -0.66476
 Alpha  occ. eigenvalues --   -0.65790  -0.64681  -0.63973  -0.62013  -0.60333
 Alpha  occ. eigenvalues --   -0.60026  -0.58303  -0.57762  -0.57646  -0.57260
 Alpha  occ. eigenvalues --   -0.57217  -0.56954  -0.56526  -0.56190  -0.56174
 Alpha  occ. eigenvalues --   -0.55974  -0.55736  -0.55584  -0.55059  -0.54705
 Alpha  occ. eigenvalues --   -0.54576  -0.54427  -0.54275  -0.54070  -0.53670
 Alpha  occ. eigenvalues --   -0.53629  -0.53175  -0.53015  -0.52814  -0.52573
 Alpha  occ. eigenvalues --   -0.52385  -0.52199  -0.51767  -0.51470  -0.51268
 Alpha  occ. eigenvalues --   -0.50970  -0.50807  -0.50715  -0.50521  -0.50314
 Alpha  occ. eigenvalues --   -0.50122  -0.49988  -0.49531  -0.49143  -0.49090
 Alpha  occ. eigenvalues --   -0.49008  -0.48654  -0.47870  -0.46388  -0.45930
 Alpha  occ. eigenvalues --   -0.45810  -0.45384  -0.44733  -0.44536  -0.42452
 Alpha  occ. eigenvalues --   -0.42168  -0.39908  -0.39678  -0.38446  -0.38128
 Alpha  occ. eigenvalues --   -0.36321  -0.35787
 Alpha virt. eigenvalues --    0.00119   0.00721   0.05357   0.06172   0.06947
 Alpha virt. eigenvalues --    0.08514   0.10538   0.13465   0.13943   0.14510
 Alpha virt. eigenvalues --    0.16442   0.17222   0.18007   0.19305   0.19625

 Mulliken charges:
               1
     1  C   -0.318370
     2  C    0.043142
     3  C   -0.332956
     4  N   -0.584865
     5  C    0.841446
     6  O   -0.499409
     7  N   -0.651381
     8  C    0.748235
     9  F   -0.246420
    10  F   -0.266407
    11  C    0.436414
    12  F   -0.253692
    13  O   -0.512594
    14  C    0.996945
    15  F   -0.238660
    16  F   -0.245396
    17  F   -0.243134
    18  C    0.816456
    19  F   -0.253428
    20  F   -0.250862
    21  F   -0.233623
    22  C    0.847404
    23  O   -0.495145
    24  N   -0.647120
    25  C    0.762312
    26  F   -0.254898
    27  F   -0.254219
    28  C    0.435959
    29  F   -0.256240
    30  O   -0.504258
    31  C    0.995945
    32  F   -0.239257
    33  F   -0.242535
    34  F   -0.242781
    35  C    0.814048
    36  F   -0.246011
    37  F   -0.258914
    38  F   -0.243241
    39  C    0.840179
    40  O   -0.487279
    41  H    0.116903
    42  H    0.125557
    43  H    0.135485
    44  H    0.163152
    45  H    0.127105
    46  H    0.138683
    47  H    0.117724
 Sum of Mulliken charges =   0.00000

 Dipole moment (field-independent basis, Debye):
    X=             -0.6935    Y=              2.9663    Z=             -1.1371  Tot=              3.2516
 Quadrupole moment (field-independent basis, Debye-Ang):
   XX=           -219.5428   YY=           -210.4372   ZZ=           -220.2745
   XY=              2.9102   XZ=              7.5348   YZ=             -1.2288

 Normal termination of Gaussian 09 at Sun Mar  3 17:53:03 2024.
