 Gaussian 09, Revision D.01,
 Gaussian 09:  ES64L-G09RevD.01 24-Apr-2013

 ----------------------------------------------------------------------
 #p CAM-B3LYP/6-31G(d,p) SCRF=(PCM,Solvent=Generic,Read) NoSymm out=wfn
 ----------------------------------------------------------------------

 ------------------
 Title A126125640_0
 ------------------
 Symbolic Z-matrix:
 Charge =  0 Multiplicity = 1

                          Input orientation:
 ---------------------------------------------------------------------
 Center     Atomic      Atomic             Coordinates (Angstroms)
 Number     Number       Type             X           Y           Z
 ---------------------------------------------------------------------
      1          6           0       -1.077621    3.524939   -1.961626
      2          6           0       -1.708575    3.491499   -0.577731
      3          6           0       -0.737520    3.053970    0.525272
      4          7           0       -0.317869    1.655495    0.401362
      5          6           0       -1.153606    0.677142    0.900927
      6          8           0       -2.291918    0.935191    1.286912
      7          7           0       -0.631487   -0.590927    0.926060
      8          6           0       -1.444477   -1.650111    1.513818
      9          9           0       -2.081228   -1.158579    2.615946
     10          9           0       -0.609903   -2.595498    2.032529
     11          6           0       -2.471575   -2.301536    0.552535
     12          9           0       -1.800321   -2.935656   -0.453375
     13          8           0       -3.235743   -1.278391   -0.095770
     14          6           0       -4.347913   -1.773714   -0.792970
     15          9           0       -4.022536   -2.858269   -1.512180
     16          9           0       -5.325021   -2.068169    0.078507
     17          9           0       -4.786352   -0.814847   -1.629315
     18          6           0       -3.234451   -3.326307    1.403700
     19          9           0       -3.996714   -2.729476    2.347287
     20          9           0       -2.418743   -4.197969    2.035058
     21          9           0       -4.071948   -4.075444    0.646179
     22          6           0        0.400830   -0.960681    0.103860
     23          8           0        0.700706   -2.139445   -0.058650
     24          7           0        1.094667    0.043802   -0.521224
     25          6           0        2.251887   -0.296943   -1.346362
     26          9           0        2.303810    0.618748   -2.370675
     27          9           0        2.019367   -1.463370   -2.015986
     28          6           0        3.658163   -0.344232   -0.685327
     29          9           0        4.572201   -0.551448   -1.687610
     30          8           0        3.970175    0.934224   -0.124493
     31          6           0        5.188032    0.970985    0.568548
     32          9           0        5.583275    2.252012    0.681863
     33          9           0        6.142411    0.273733   -0.064930
     34          9           0        4.994420    0.473632    1.802553
     35          6           0        3.699084   -1.529186    0.281249
     36          9           0        2.878437   -1.311172    1.337456
     37          9           0        4.938813   -1.717433    0.792619
     38          9           0        3.348651   -2.694873   -0.294260
     39          6           0        0.871312    1.369801   -0.238853
     40          8           0        1.670716    2.254270   -0.534048
     41          1           0       -1.789624    3.927993   -2.689007
     42          1           0       -0.186637    4.160484   -1.972994
     43          1           0       -0.794679    2.522426   -2.296041
     44          1           0       -2.584504    2.833488   -0.600897
     45          1           0       -2.072569    4.497736   -0.338385
     46          1           0       -1.231203    3.178905    1.496928
     47          1           0        0.137782    3.713201    0.531542
 ---------------------------------------------------------------------

 SCF Done:  E(RCAM-B3LYP) =  -2874.39653148     A.U. after   13 cycles

 Alpha  occ. eigenvalues --  -24.84037 -24.83868 -24.83769 -24.83684 -24.83620
 Alpha  occ. eigenvalues --  -24.83496 -24.83400 -24.83358 -24.83240 -24.83142
 Alpha  occ. eigenvalues --  -24.83083 -24.83046 -24.83022 -24.83005 -24.82927
 Alpha  occ. eigenvalues --  -24.82850 -24.82814 -24.82205 -19.33278 -19.32880
 Alpha  occ. eigenvalues --  -19.24266 -19.24104 -19.24041 -14.53485 -14.53233
 Alpha  occ. eigenvalues --  -14.50640 -10.59809 -10.59528 -10.55639 -10.55500
 Alpha  occ. eigenvalues --  -10.53725 -10.53626 -10.49185 -10.49179 -10.46998
 Alpha  occ. eigenvalues --  -10.45858 -10.45819 -10.31869 -10.26915 -10.25358
 Alpha  occ. eigenvalues --   -1.43457  -1.43261  -1.41980  -1.41841  -1.39241
 Alpha  occ. eigenvalues --   -1.38933  -1.35850  -1.35293  -1.33771  -1.33525
 Alpha  occ. eigenvalues --   -1.33458  -1.33295  -1.33216  -1.32856  -1.32390
 Alpha  occ. eigenvalues --   -1.32230  -1.31706  -1.31231  -1.23564  -1.20847
 Alpha  occ. eigenvalues --   -1.20604  -1.18109  -1.17945  -1.10218  -1.08832
 Alpha  occ. eigenvalues --   -1.06674  -0.94134  -0.93456  -0.89013  -0.85835
 Alpha  occ. eigenvalues --   -0.84179  -0.82351  -0.82257  -0.81929  -0.79176
 Alpha  occ. eigenvalues --   -0.78317  -0.76075  -0.75985  -0.74824  -0.73398
 Alpha  occ. eigenvalues --   -0.73073  -0.72723  -0.72059  -0.70879  -0.70619
 Alpha  occ. eigenvalues --   -0.70230  -0.69627  -0.69507  -0.68673  -0.68574
 Alpha  occ. eigenvalues --   -0.68009  -0.67632  -0.66840  -0.66601  -0.66397
 Alpha  occ. eigenvalues --   -0.65645  -0.64928  -0.64182  -0.62622  -0.60127
 Alpha  occ. eigenvalues --   -0.59807  -0.58742  -0.57998  -0.57798  -0.57337
 Alpha  occ. eigenvalues --   -0.57188  -0.56936  -0.56499  -0.56259  -0.56095
 Alpha  occ. eigenvalues --   -0.55904  -0.55768  -0.55565  -0.55169  -0.54934
 Alpha  occ. eigenvalues --   -0.54794  -0.54501  -0.54368  -0.53925  -0.53725
 Alpha  occ. eigenvalues --   -0.53648  -0.53300  -0.53039  -0.52652  -0.52554
 Alpha  occ. eigenvalues --   -0.52378  -0.52185  -0.51796  -0.51698  -0.51269
 Alpha  occ. eigenvalues --   -0.51066  -0.50812  -0.50684  -0.50485  -0.50329
 Alpha  occ. eigenvalues --   -0.50083  -0.49959  -0.49899  -0.49394  -0.49162
 Alpha  occ. eigenvalues --   -0.49033  -0.48970  -0.48768  -0.47663  -0.46141
 Alpha  occ. eigenvalues --   -0.45939  -0.44843  -0.44562  -0.43112  -0.41979
 Alpha  occ. eigenvalues --   -0.41775  -0.39926  -0.39683  -0.39081  -0.38415
 Alpha  occ. eigenvalues --   -0.36281  -0.35793
 Alpha virt. eigenvalues --    0.00111   0.00618   0.05346   0.06290   0.07243
 Alpha virt. eigenvalues --    0.08334   0.10769   0.13376   0.13961   0.14249
 Alpha virt. eigenvalues --    0.15745   0.16966   0.17340   0.18320   0.18920

 Mulliken charges:
               1
     1  C   -0.320508
     2  C   -0.187858
     3  C   -0.068580
     4  N   -0.578859
     5  C    0.835804
     6  O   -0.489135
     7  N   -0.654511
     8  C    0.761335
     9  F   -0.251900
    10  F   -0.252796
    11  C    0.435503
    12  F   -0.254703
    13  O   -0.506459
    14  C    0.994641
    15  F   -0.241907
    16  F   -0.241684
    17  F   -0.239362
    18  C    0.813791
    19  F   -0.245059
    20  F   -0.242431
    21  F   -0.258515
    22  C    0.838307
    23  O   -0.485571
    24  N   -0.647377
    25  C    0.742745
    26  F   -0.262330
    27  F   -0.243799
    28  C    0.436318
    29  F   -0.266422
    30  O   -0.498665
    31  C    0.993765
    32  F   -0.236827
    33  F   -0.241839
    34  F   -0.248802
    35  C    0.814811
    36  F   -0.251653
    37  F   -0.253266
    38  F   -0.231817
    39  C    0.835041
    40  O   -0.485102
    41  H    0.113250
    42  H    0.120643
    43  H    0.100702
    44  H    0.126763
    45  H    0.117073
    46  H    0.147836
    47  H    0.159407
 Sum of Mulliken charges =   0.00000

 Dipole moment (field-independent basis, Debye):
    X=             -0.8564    Y=              2.5892    Z=              0.1377  Tot=              2.7306
 Quadrupole moment (field-independent basis, Debye-Ang):
   XX=           -221.3032   YY=           -214.4704   ZZ=           -214.9568
   XY=             -3.5618   XZ=              7.1025   YZ=              1.9977

 Normal termination of Gaussian 09 at Tue Mar  5 16:48:19 2024.
