 Gaussian 09, Revision D.01,
 Gaussian 09:  ES64L-G09RevD.01 24-Apr-2013

 ----------------------------------------------------------------------
 #p CAM-B3LYP/6-31G(d,p) SCRF=(PCM,Solvent=Generic,Read) NoSymm out=wfn
 ----------------------------------------------------------------------

 -------------------
 Title A126125640_p1
 -------------------
 Symbolic Z-matrix:
 Charge =  1 Multiplicity = 2

                          Input orientation:
 ---------------------------------------------------------------------
 Center     Atomic      Atomic             Coordinates (Angstroms)
 Number     Number       Type             X           Y           Z
 ---------------------------------------------------------------------
      1          6           0       -0.942257    4.439551   -0.708036
      2          6           0        0.372864    4.148532   -0.000780
      3          6           0        0.286844    2.985108    0.993946
      4          7           0        0.059274    1.689755    0.349282
      5          6           0       -1.231161    1.219129    0.231963
      6          8           0       -2.166608    1.724491    0.846901
      7          7           0       -1.389447    0.155007   -0.618170
      8          6           0       -2.750595   -0.299761   -0.880671
      9          9           0       -2.799349   -0.861927   -2.118292
     10          9           0       -3.549673    0.797667   -1.017240
     11          6           0       -3.332816   -1.260993    0.190140
     12          9           0       -3.257049   -0.630879    1.412819
     13          8           0       -2.546496   -2.438955    0.412878
     14          6           0       -2.849318   -3.524222   -0.433054
     15          9           0       -1.873207   -4.442100   -0.323688
     16          9           0       -2.953846   -3.134944   -1.708109
     17          9           0       -4.006349   -4.081617   -0.040531
     18          6           0       -4.823994   -1.444848   -0.121808
     19          9           0       -5.409719   -2.250261    0.799215
     20          9           0       -5.042517   -2.004604   -1.329786
     21          9           0       -5.508377   -0.279637   -0.095636
     22          6           0       -0.353907   -0.706069   -0.879345
     23          8           0       -0.565524   -1.794697   -1.409196
     24          7           0        0.909983   -0.297854   -0.511169
     25          6           0        2.007140   -1.186237   -0.902878
     26          9           0        2.077971   -1.190344   -2.262848
     27          9           0        1.632576   -2.451694   -0.538107
     28          6           0        3.427815   -0.974360   -0.315257
     29          9           0        4.021243    0.096411   -0.919366
     30          8           0        3.311406   -0.681910    1.086472
     31          6           0        4.558764   -0.606254    1.729098
     32          9           0        4.986466   -1.851618    1.994989
     33          9           0        5.466484    0.044100    0.987943
     34          9           0        4.393718    0.047045    2.894530
     35          6           0        4.225483   -2.236310   -0.679117
     36          9           0        3.802251   -3.320098    0.010376
     37          9           0        4.160986   -2.536135   -1.994128
     38          9           0        5.540746   -2.086934   -0.385229
     39          6           0        1.143268    1.003939   -0.158975
     40          8           0        2.238019    1.544637   -0.272751
     41          1           0       -1.745979    4.618954    0.012910
     42          1           0       -0.842667    5.333190   -1.332532
     43          1           0       -1.237238    3.611849   -1.359746
     44          1           0        0.678082    5.048484    0.546267
     45          1           0        1.146904    3.954934   -0.751791
     46          1           0        1.230676    2.928839    1.550274
     47          1           0       -0.500870    3.183639    1.729432
 ---------------------------------------------------------------------

 SCF Done:  E(UCAM-B3LYP) =  -2874.04340227     A.U. after   35 cycles

 Alpha  occ. eigenvalues --  -24.90445 -24.90195 -24.89777 -24.89676 -24.89304
 Alpha  occ. eigenvalues --  -24.88891 -24.88856 -24.88694 -24.88235 -24.88195
 Alpha  occ. eigenvalues --  -24.87952 -24.87885 -24.87807 -24.87636 -24.87558
 Alpha  occ. eigenvalues --  -24.87522 -24.87434 -24.86999 -19.40387 -19.39986
 Alpha  occ. eigenvalues --  -19.39649 -19.38565 -19.33886 -14.71017 -14.63854
 Alpha  occ. eigenvalues --  -14.63372 -10.65005 -10.64039 -10.61274 -10.60837
 Alpha  occ. eigenvalues --  -10.60577 -10.60232 -10.59430 -10.58998 -10.56367
 Alpha  occ. eigenvalues --  -10.55782 -10.55213 -10.45400 -10.38549 -10.34296
 Alpha  occ. eigenvalues --   -1.48383  -1.47823  -1.46961  -1.46690  -1.45809
 Alpha  occ. eigenvalues --   -1.45592  -1.41729  -1.41515  -1.39201  -1.39183
 Alpha  occ. eigenvalues --   -1.38609  -1.38267  -1.37885  -1.37467  -1.37247
 Alpha  occ. eigenvalues --   -1.37061  -1.36988  -1.36781  -1.36438  -1.32462
 Alpha  occ. eigenvalues --   -1.29400  -1.26959  -1.25836  -1.24555  -1.19870
 Alpha  occ. eigenvalues --   -1.19501  -1.02203  -1.00137  -0.99382  -0.95878
 Alpha  occ. eigenvalues --   -0.94137  -0.93058  -0.88337  -0.87957  -0.87626
 Alpha  occ. eigenvalues --   -0.87238  -0.86475  -0.82947  -0.81187  -0.80179
 Alpha  occ. eigenvalues --   -0.79214  -0.78812  -0.78087  -0.77623  -0.76627
 Alpha  occ. eigenvalues --   -0.76355  -0.75988  -0.75798  -0.75218  -0.74370
 Alpha  occ. eigenvalues --   -0.73913  -0.73670  -0.72987  -0.72852  -0.72454
 Alpha  occ. eigenvalues --   -0.72039  -0.71898  -0.71711  -0.71400  -0.69961
 Alpha  occ. eigenvalues --   -0.69425  -0.67998  -0.66924  -0.66547  -0.65816
 Alpha  occ. eigenvalues --   -0.64870  -0.64065  -0.63802  -0.62786  -0.62591
 Alpha  occ. eigenvalues --   -0.62425  -0.62235  -0.62079  -0.61774  -0.61646
 Alpha  occ. eigenvalues --   -0.61460  -0.61130  -0.60997  -0.60429  -0.60327
 Alpha  occ. eigenvalues --   -0.60137  -0.59617  -0.59258  -0.59199  -0.59055
 Alpha  occ. eigenvalues --   -0.58720  -0.58404  -0.58202  -0.58039  -0.57391
 Alpha  occ. eigenvalues --   -0.57267  -0.57099  -0.56786  -0.56132  -0.55954
 Alpha  occ. eigenvalues --   -0.55801  -0.55451  -0.55383  -0.55047  -0.54976
 Alpha  occ. eigenvalues --   -0.54657  -0.54437  -0.54194  -0.54129  -0.53816
 Alpha  occ. eigenvalues --   -0.53332  -0.53078  -0.52456  -0.52381  -0.52260
 Alpha  occ. eigenvalues --   -0.51677  -0.51152  -0.50537  -0.50152  -0.50007
 Alpha  occ. eigenvalues --   -0.47508  -0.46539
 Alpha virt. eigenvalues --   -0.13234  -0.10597  -0.03604  -0.01690   0.00120
 Alpha virt. eigenvalues --    0.01419   0.02546   0.04151   0.04398   0.06043
 Alpha virt. eigenvalues --    0.07792   0.08852   0.09704   0.10695   0.10945

  Beta  occ. eigenvalues --  -24.90432 -24.90193 -24.89778 -24.89674 -24.89302
  Beta  occ. eigenvalues --  -24.88891 -24.88843 -24.88694 -24.88234 -24.88193
  Beta  occ. eigenvalues --  -24.87952 -24.87885 -24.87807 -24.87636 -24.87558
  Beta  occ. eigenvalues --  -24.87522 -24.87434 -24.86998 -19.39732 -19.39632
  Beta  occ. eigenvalues --  -19.39285 -19.38564 -19.33859 -14.69886 -14.63852
  Beta  occ. eigenvalues --  -14.63409 -10.65005 -10.64039 -10.61276 -10.60836
  Beta  occ. eigenvalues --  -10.60577 -10.60232 -10.59623 -10.59218 -10.56384
  Beta  occ. eigenvalues --  -10.55783 -10.55214 -10.45338 -10.38375 -10.34282
  Beta  occ. eigenvalues --   -1.48380  -1.47820  -1.46959  -1.46683  -1.45804
  Beta  occ. eigenvalues --   -1.45590  -1.41704  -1.41510  -1.39199  -1.39167
  Beta  occ. eigenvalues --   -1.38606  -1.38265  -1.37882  -1.37464  -1.37244
  Beta  occ. eigenvalues --   -1.37025  -1.36786  -1.36444  -1.36073  -1.31446
  Beta  occ. eigenvalues --   -1.29050  -1.26923  -1.25829  -1.22630  -1.19416
  Beta  occ. eigenvalues --   -1.19249  -1.01758  -0.99991  -0.99293  -0.95542
  Beta  occ. eigenvalues --   -0.94057  -0.92819  -0.88236  -0.87792  -0.87347
  Beta  occ. eigenvalues --   -0.87138  -0.86440  -0.82864  -0.81172  -0.79943
  Beta  occ. eigenvalues --   -0.78994  -0.78680  -0.77802  -0.77520  -0.76317
  Beta  occ. eigenvalues --   -0.76257  -0.75912  -0.75196  -0.75033  -0.74091
  Beta  occ. eigenvalues --   -0.73829  -0.73573  -0.72977  -0.72696  -0.72430
  Beta  occ. eigenvalues --   -0.71894  -0.71675  -0.71351  -0.71106  -0.69859
  Beta  occ. eigenvalues --   -0.68809  -0.67398  -0.65941  -0.65631  -0.65448
  Beta  occ. eigenvalues --   -0.64693  -0.63942  -0.63323  -0.62728  -0.62507
  Beta  occ. eigenvalues --   -0.62311  -0.62091  -0.61840  -0.61601  -0.61525
  Beta  occ. eigenvalues --   -0.61382  -0.60901  -0.60615  -0.60364  -0.60269
  Beta  occ. eigenvalues --   -0.59977  -0.59512  -0.59177  -0.59112  -0.58761
  Beta  occ. eigenvalues --   -0.58458  -0.58328  -0.58094  -0.57978  -0.57330
  Beta  occ. eigenvalues --   -0.57206  -0.57070  -0.56686  -0.56056  -0.55830
  Beta  occ. eigenvalues --   -0.55448  -0.55378  -0.55032  -0.54864  -0.54603
  Beta  occ. eigenvalues --   -0.54285  -0.54185  -0.53810  -0.53342  -0.53091
  Beta  occ. eigenvalues --   -0.52796  -0.52545  -0.52240  -0.51990  -0.50990
  Beta  occ. eigenvalues --   -0.50663  -0.50209  -0.50121  -0.49272  -0.47204
  Beta  occ. eigenvalues --   -0.46268
  Beta virt. eigenvalues --   -0.33364  -0.12139  -0.09495  -0.02995  -0.01661
  Beta virt. eigenvalues --    0.00161   0.01474   0.02775   0.04476   0.04680
  Beta virt. eigenvalues --    0.06148   0.07866   0.08986   0.09915   0.10743

 Mulliken charges and spin densities:
               1          2
     1  C   -0.342259   0.006706
     2  C   -0.215211   0.089477
     3  C   -0.121261   0.026353
     4  N   -0.450217   0.519287
     5  C    0.863498  -0.129003
     6  O   -0.350206   0.275899
     7  N   -0.656563  -0.009905
     8  C    0.766326  -0.000238
     9  F   -0.229868   0.000453
    10  F   -0.247232   0.002552
    11  C    0.440030  -0.000149
    12  F   -0.264482   0.000268
    13  O   -0.511471   0.000361
    14  C    1.014140  -0.000051
    15  F   -0.235538  -0.000001
    16  F   -0.238027  -0.000006
    17  F   -0.238805   0.000009
    18  C    0.812259  -0.000073
    19  F   -0.248905   0.000048
    20  F   -0.239206  -0.000001
    21  F   -0.240150   0.000034
    22  C    0.879765  -0.007558
    23  O   -0.424982   0.010851
    24  N   -0.667044   0.005778
    25  C    0.809280  -0.001271
    26  F   -0.237443   0.000606
    27  F   -0.248943  -0.000191
    28  C    0.403617  -0.000289
    29  F   -0.250822   0.003040
    30  O   -0.529630   0.004840
    31  C    1.000160  -0.000150
    32  F   -0.233780   0.000449
    33  F   -0.231201   0.000002
    34  F   -0.235950  -0.000007
    35  C    0.828854  -0.000032
    36  F   -0.238866   0.000022
    37  F   -0.234568   0.000063
    38  F   -0.248524  -0.000015
    39  C    0.877448  -0.115566
    40  O   -0.355419   0.255442
    41  H    0.155235   0.005496
    42  H    0.174898   0.016017
    43  H    0.114840  -0.000067
    44  H    0.191253   0.003536
    45  H    0.171638   0.000194
    46  H    0.229196   0.024491
    47  H    0.234136   0.012300
 Sum of Mulliken charges =   1.00000   1.00000

 Dipole moment (field-independent basis, Debye):
    X=              1.0541    Y=             10.2709    Z=              1.2660  Tot=             10.4022
 Quadrupole moment (field-independent basis, Debye-Ang):
   XX=           -203.6516   YY=           -172.4786   ZZ=           -205.8848
   XY=              1.2160   XZ=              3.8419   YZ=              1.7769

 Normal termination of Gaussian 09 at Tue Mar  5 12:18:59 2024.
