 Gaussian 09, Revision D.01,
 Gaussian 09:  ES64L-G09RevD.01 24-Apr-2013

 ----------------------------------------------------------------------
 #p CAM-B3LYP/6-31G(d,p) SCRF=(PCM,Solvent=Generic,Read) NoSymm out=wfn
 ----------------------------------------------------------------------

 ------------------
 Title A124553252_0
 ------------------
 Symbolic Z-matrix:
 Charge =  0 Multiplicity = 1

                          Input orientation:
 ---------------------------------------------------------------------
 Center     Atomic      Atomic             Coordinates (Angstroms)
 Number     Number       Type             X           Y           Z
 ---------------------------------------------------------------------
      1          8           0        1.637576    1.191298    2.726343
      2          6           0        0.763932    0.884969    1.924740
      3          8           0       -0.434177    0.469582    2.385875
      4          6           0       -1.453011    0.174089    1.551293
      5          8           0       -2.506695   -0.228642    2.025225
      6          7           0       -1.268492    0.341894    0.212567
      7          6           0       -2.299163   -0.078993   -0.731111
      8          9           0       -2.043394    0.573571   -1.911726
      9          9           0       -2.090805   -1.396829   -1.013951
     10          6           0       -3.826468    0.139018   -0.474816
     11          9           0       -4.499023   -0.145197   -1.643008
     12          8           0       -4.499746   -0.626689    0.521495
     13          6           0       -4.374557   -2.015724    0.346161
     14          9           0       -4.522257   -2.368120   -0.941304
     15          9           0       -3.171989   -2.427803    0.785579
     16          9           0       -5.328912   -2.627924    1.072344
     17          6           0       -4.017949    1.635097   -0.224355
     18          9           0       -3.584206    2.387603   -1.261963
     19          9           0       -3.338521    2.068532    0.864055
     20          9           0       -5.320001    1.950591   -0.027305
     21          6           0        0.012547    0.375764   -0.266140
     22          8           0        0.325266   -0.071287   -1.364688
     23          7           0        0.950733    0.894874    0.573973
     24          6           0        2.287054    1.180315    0.078231
     25          9           0        2.670940    2.367678    0.654020
     26          9           0        2.227857    1.504982   -1.248310
     27          6           0        3.432935    0.151156    0.295844
     28          9           0        3.563576   -0.105516    1.629889
     29          8           0        4.657505    0.786404   -0.109454
     30          6           0        5.763418   -0.075927   -0.106553
     31          9           0        6.886311    0.665200   -0.100281
     32          9           0        5.761739   -0.874287    0.971467
     33          9           0        5.742744   -0.814583   -1.228464
     34          6           0        3.064056   -1.145010   -0.426397
     35          9           0        1.893928   -1.644211    0.042188
     36          9           0        2.953680   -0.979208   -1.757862
     37          9           0        3.983566   -2.116668   -0.221714
 ---------------------------------------------------------------------

 SCF Done:  E(RCAM-B3LYP) =  -2776.35952161     A.U. after   13 cycles

 Alpha  occ. eigenvalues --  -24.84743 -24.84322 -24.83984 -24.83943 -24.83925
 Alpha  occ. eigenvalues --  -24.83891 -24.83790 -24.83731 -24.83577 -24.83540
 Alpha  occ. eigenvalues --  -24.83521 -24.83505 -24.83466 -24.83444 -24.83421
 Alpha  occ. eigenvalues --  -24.83202 -24.83043 -24.82973 -19.36734 -19.33387
 Alpha  occ. eigenvalues --  -19.32876 -19.26550 -19.26442 -19.26413 -14.55353
 Alpha  occ. eigenvalues --  -14.55335 -10.59846 -10.59540 -10.56257 -10.56047
 Alpha  occ. eigenvalues --  -10.54927 -10.54680 -10.50152 -10.50127 -10.50031
 Alpha  occ. eigenvalues --  -10.49887 -10.48524  -1.43605  -1.43028  -1.42494
 Alpha  occ. eigenvalues --   -1.42444  -1.39947  -1.39655  -1.36344  -1.35688
 Alpha  occ. eigenvalues --   -1.33963  -1.33744  -1.33519  -1.33505  -1.33276
 Alpha  occ. eigenvalues --   -1.33082  -1.32896  -1.32887  -1.32360  -1.32087
 Alpha  occ. eigenvalues --   -1.31574  -1.22220  -1.21034  -1.20819  -1.20289
 Alpha  occ. eigenvalues --   -1.15797  -1.12211  -1.10923  -0.94938  -0.94181
 Alpha  occ. eigenvalues --   -0.87340  -0.86775  -0.83409  -0.82846  -0.81756
 Alpha  occ. eigenvalues --   -0.81167  -0.79105  -0.77998  -0.76181  -0.74757
 Alpha  occ. eigenvalues --   -0.73240  -0.72596  -0.72385  -0.71282  -0.70874
 Alpha  occ. eigenvalues --   -0.70424  -0.70066  -0.69638  -0.69293  -0.68920
 Alpha  occ. eigenvalues --   -0.68239  -0.68066  -0.67776  -0.67027  -0.66937
 Alpha  occ. eigenvalues --   -0.65887  -0.65057  -0.64887  -0.60844  -0.60553
 Alpha  occ. eigenvalues --   -0.59855  -0.58568  -0.58166  -0.57927  -0.57651
 Alpha  occ. eigenvalues --   -0.57402  -0.57322  -0.57091  -0.56764  -0.56384
 Alpha  occ. eigenvalues --   -0.56288  -0.56037  -0.55810  -0.55581  -0.55183
 Alpha  occ. eigenvalues --   -0.55098  -0.54748  -0.54643  -0.54319  -0.53966
 Alpha  occ. eigenvalues --   -0.53556  -0.53281  -0.53040  -0.52641  -0.52612
 Alpha  occ. eigenvalues --   -0.52589  -0.52229  -0.51984  -0.51641  -0.51372
 Alpha  occ. eigenvalues --   -0.51267  -0.51174  -0.50660  -0.50641  -0.50234
 Alpha  occ. eigenvalues --   -0.50161  -0.49608  -0.49426  -0.49327  -0.48982
 Alpha  occ. eigenvalues --   -0.46718  -0.46608  -0.45106  -0.44740  -0.44114
 Alpha  occ. eigenvalues --   -0.42701  -0.42198  -0.40483  -0.40202  -0.38299
 Alpha virt. eigenvalues --   -0.02024  -0.00964   0.04158   0.04577   0.05785
 Alpha virt. eigenvalues --    0.07233   0.09709   0.12019   0.13538   0.15247
 Alpha virt. eigenvalues --    0.16060   0.16468   0.18571   0.19357   0.19406

 Mulliken charges:
               1
     1  O   -0.446494
     2  C    0.803737
     3  O   -0.429394
     4  C    0.804420
     5  O   -0.458707
     6  N   -0.600318
     7  C    0.778390
     8  F   -0.265969
     9  F   -0.255427
    10  C    0.413646
    11  F   -0.269799
    12  O   -0.489538
    13  C    1.001687
    14  F   -0.244837
    15  F   -0.245470
    16  F   -0.238698
    17  C    0.809560
    18  F   -0.241375
    19  F   -0.243380
    20  F   -0.244567
    21  C    0.854050
    22  O   -0.456536
    23  N   -0.614142
    24  C    0.755451
    25  F   -0.260422
    26  F   -0.245125
    27  C    0.433342
    28  F   -0.252615
    29  O   -0.511661
    30  C    0.998444
    31  F   -0.236979
    32  F   -0.241979
    33  F   -0.244443
    34  C    0.822087
    35  F   -0.253936
    36  F   -0.232254
    37  F   -0.250749
 Sum of Mulliken charges =   0.00000

 Dipole moment (field-independent basis, Debye):
    X=              0.0544    Y=              0.2827    Z=             -0.7981  Tot=              0.8484
 Quadrupole moment (field-independent basis, Debye-Ang):
   XX=           -200.1046   YY=           -192.4252   ZZ=           -207.7260
   XY=             -4.5687   XZ=              0.3184   YZ=             -2.3783

 Normal termination of Gaussian 09 at Sun Mar  3 18:20:46 2024.
