 Gaussian 09, Revision D.01,
 Gaussian 09:  ES64L-G09RevD.01 24-Apr-2013

 ----------------------------------------------------------------------
 #p CAM-B3LYP/6-31G(d,p) SCRF=(PCM,Solvent=Generic,Read) NoSymm out=wfn
 ----------------------------------------------------------------------

 -------------------
 Title A124553252_p1
 -------------------
 Symbolic Z-matrix:
 Charge =  1 Multiplicity = 2

                          Input orientation:
 ---------------------------------------------------------------------
 Center     Atomic      Atomic             Coordinates (Angstroms)
 Number     Number       Type             X           Y           Z
 ---------------------------------------------------------------------
      1          8           0        1.637576    1.191298    2.726343
      2          6           0        0.763932    0.884969    1.924740
      3          8           0       -0.434177    0.469582    2.385875
      4          6           0       -1.453011    0.174089    1.551293
      5          8           0       -2.506695   -0.228642    2.025225
      6          7           0       -1.268492    0.341894    0.212567
      7          6           0       -2.299163   -0.078993   -0.731111
      8          9           0       -2.043394    0.573571   -1.911726
      9          9           0       -2.090805   -1.396829   -1.013951
     10          6           0       -3.826468    0.139018   -0.474816
     11          9           0       -4.499023   -0.145197   -1.643008
     12          8           0       -4.499746   -0.626689    0.521495
     13          6           0       -4.374557   -2.015724    0.346161
     14          9           0       -4.522257   -2.368120   -0.941304
     15          9           0       -3.171989   -2.427803    0.785579
     16          9           0       -5.328912   -2.627924    1.072344
     17          6           0       -4.017949    1.635097   -0.224355
     18          9           0       -3.584206    2.387603   -1.261963
     19          9           0       -3.338521    2.068532    0.864055
     20          9           0       -5.320001    1.950591   -0.027305
     21          6           0        0.012547    0.375764   -0.266140
     22          8           0        0.325266   -0.071287   -1.364688
     23          7           0        0.950733    0.894874    0.573973
     24          6           0        2.287054    1.180315    0.078231
     25          9           0        2.670940    2.367678    0.654020
     26          9           0        2.227857    1.504982   -1.248310
     27          6           0        3.432935    0.151156    0.295844
     28          9           0        3.563576   -0.105516    1.629889
     29          8           0        4.657505    0.786404   -0.109454
     30          6           0        5.763418   -0.075927   -0.106553
     31          9           0        6.886311    0.665200   -0.100281
     32          9           0        5.761739   -0.874287    0.971467
     33          9           0        5.742744   -0.814583   -1.228464
     34          6           0        3.064056   -1.145010   -0.426397
     35          9           0        1.893928   -1.644211    0.042188
     36          9           0        2.953680   -0.979208   -1.757862
     37          9           0        3.983566   -2.116668   -0.221714
 ---------------------------------------------------------------------

 SCF Done:  E(UCAM-B3LYP) =  -2775.99801378     A.U. after   37 cycles

 Alpha  occ. eigenvalues --  -24.91187 -24.91038 -24.90105 -24.89749 -24.88797
 Alpha  occ. eigenvalues --  -24.88502 -24.87978 -24.87673 -24.87141 -24.87079
 Alpha  occ. eigenvalues --  -24.87035 -24.86435 -24.86349 -24.86303 -24.86257
 Alpha  occ. eigenvalues --  -24.86021 -24.85850 -24.85821 -19.49747 -19.44083
 Alpha  occ. eigenvalues --  -19.36991 -19.36775 -19.35632 -19.35487 -14.66097
 Alpha  occ. eigenvalues --  -14.66030 -10.62677 -10.62483 -10.62379 -10.61611
 Alpha  occ. eigenvalues --  -10.61185 -10.60510 -10.59534 -10.58130 -10.58113
 Alpha  occ. eigenvalues --  -10.54714 -10.54509  -1.47576  -1.47339  -1.46153
 Alpha  occ. eigenvalues --   -1.45661  -1.45601  -1.45456  -1.41028  -1.40519
 Alpha  occ. eigenvalues --   -1.39676  -1.39351  -1.38609  -1.38563  -1.37763
 Alpha  occ. eigenvalues --   -1.37004  -1.36790  -1.36258  -1.36078  -1.35845
 Alpha  occ. eigenvalues --   -1.35670  -1.35412  -1.29249  -1.25609  -1.24507
 Alpha  occ. eigenvalues --   -1.24216  -1.23389  -1.20473  -1.00938  -0.99331
 Alpha  occ. eigenvalues --   -0.94865  -0.94609  -0.92425  -0.89324  -0.87645
 Alpha  occ. eigenvalues --   -0.86649  -0.84510  -0.82941  -0.81217  -0.79281
 Alpha  occ. eigenvalues --   -0.78155  -0.77756  -0.76739  -0.76432  -0.76054
 Alpha  occ. eigenvalues --   -0.75459  -0.74749  -0.74061  -0.73817  -0.73117
 Alpha  occ. eigenvalues --   -0.72769  -0.72622  -0.72493  -0.72009  -0.71341
 Alpha  occ. eigenvalues --   -0.71005  -0.70797  -0.70326  -0.69742  -0.68626
 Alpha  occ. eigenvalues --   -0.67167  -0.66634  -0.65319  -0.64432  -0.63852
 Alpha  occ. eigenvalues --   -0.63574  -0.62890  -0.62009  -0.61473  -0.61317
 Alpha  occ. eigenvalues --   -0.60984  -0.60840  -0.60381  -0.60160  -0.59916
 Alpha  occ. eigenvalues --   -0.59808  -0.59666  -0.59490  -0.59156  -0.58896
 Alpha  occ. eigenvalues --   -0.58516  -0.58376  -0.58082  -0.57272  -0.56889
 Alpha  occ. eigenvalues --   -0.56771  -0.56297  -0.56219  -0.55908  -0.55724
 Alpha  occ. eigenvalues --   -0.55421  -0.55199  -0.54950  -0.54637  -0.54533
 Alpha  occ. eigenvalues --   -0.54007  -0.53915  -0.53599  -0.53349  -0.53091
 Alpha  occ. eigenvalues --   -0.52641  -0.52265  -0.51884  -0.50993  -0.50050
 Alpha  occ. eigenvalues --   -0.49824  -0.49547  -0.48792  -0.48136  -0.46948
 Alpha virt. eigenvalues --   -0.14116  -0.08857  -0.02774  -0.01910   0.00259
 Alpha virt. eigenvalues --    0.01638   0.03882   0.05987   0.06648   0.08647
 Alpha virt. eigenvalues --    0.08917   0.11016   0.11423   0.13548   0.14675

  Beta  occ. eigenvalues --  -24.91099 -24.90949 -24.90071 -24.89742 -24.88777
  Beta  occ. eigenvalues --  -24.88489 -24.87977 -24.87672 -24.87138 -24.87076
  Beta  occ. eigenvalues --  -24.87034 -24.86434 -24.86348 -24.86302 -24.86257
  Beta  occ. eigenvalues --  -24.86021 -24.85850 -24.85821 -19.47793 -19.44083
  Beta  occ. eigenvalues --  -19.36947 -19.36775 -19.35322 -19.35204 -14.65955
  Beta  occ. eigenvalues --  -14.65893 -10.62678 -10.62632 -10.62379 -10.61620
  Beta  occ. eigenvalues --  -10.61193 -10.60510 -10.59534 -10.58179 -10.58160
  Beta  occ. eigenvalues --  -10.54704 -10.54510  -1.47504  -1.47236  -1.46016
  Beta  occ. eigenvalues --   -1.45649  -1.45562  -1.45452  -1.40505  -1.39915
  Beta  occ. eigenvalues --   -1.39549  -1.39275  -1.38546  -1.38203  -1.37010
  Beta  occ. eigenvalues --   -1.36787  -1.36263  -1.36078  -1.35933  -1.35805
  Beta  occ. eigenvalues --   -1.35667  -1.35408  -1.28848  -1.24825  -1.24271
  Beta  occ. eigenvalues --   -1.24190  -1.22653  -1.19990  -1.00803  -0.99280
  Beta  occ. eigenvalues --   -0.94435  -0.94263  -0.92008  -0.88624  -0.87322
  Beta  occ. eigenvalues --   -0.86594  -0.84498  -0.82795  -0.81076  -0.79238
  Beta  occ. eigenvalues --   -0.78024  -0.77589  -0.76658  -0.76203  -0.75706
  Beta  occ. eigenvalues --   -0.75282  -0.74482  -0.73791  -0.73237  -0.72851
  Beta  occ. eigenvalues --   -0.72652  -0.72523  -0.72339  -0.71910  -0.71319
  Beta  occ. eigenvalues --   -0.70949  -0.70746  -0.70294  -0.69656  -0.68077
  Beta  occ. eigenvalues --   -0.66430  -0.65216  -0.64400  -0.63907  -0.63410
  Beta  occ. eigenvalues --   -0.63115  -0.61935  -0.61524  -0.61317  -0.61148
  Beta  occ. eigenvalues --   -0.60897  -0.60589  -0.60230  -0.59952  -0.59862
  Beta  occ. eigenvalues --   -0.59632  -0.59467  -0.59190  -0.58862  -0.58681
  Beta  occ. eigenvalues --   -0.58307  -0.58066  -0.57204  -0.56909  -0.56672
  Beta  occ. eigenvalues --   -0.56201  -0.56075  -0.55823  -0.55563  -0.55380
  Beta  occ. eigenvalues --   -0.54902  -0.54685  -0.54600  -0.54442  -0.53988
  Beta  occ. eigenvalues --   -0.53900  -0.53618  -0.53323  -0.53070  -0.52618
  Beta  occ. eigenvalues --   -0.52262  -0.51188  -0.50613  -0.49708  -0.49343
  Beta  occ. eigenvalues --   -0.49138  -0.48169  -0.47312  -0.45806
  Beta virt. eigenvalues --   -0.33561  -0.13786  -0.08597  -0.02711  -0.01861
  Beta virt. eigenvalues --    0.00311   0.01713   0.03945   0.06060   0.06805
  Beta virt. eigenvalues --    0.08709   0.09121   0.11214   0.11478   0.13692

 Mulliken charges and spin densities:
               1          2
     1  O   -0.350289   0.117067
     2  C    0.861852  -0.027884
     3  O   -0.404932   0.002794
     4  C    0.854879  -0.027484
     5  O   -0.370110   0.107115
     6  N   -0.580938   0.059331
     7  C    0.759305  -0.006771
     8  F   -0.239750   0.022394
     9  F   -0.228819   0.008996
    10  C    0.413552   0.002688
    11  F   -0.250651   0.000981
    12  O   -0.476218   0.014212
    13  C    1.009208  -0.000641
    14  F   -0.238030   0.000279
    15  F   -0.246841   0.000465
    16  F   -0.228458   0.000152
    17  C    0.819638   0.000396
    18  F   -0.234497   0.000595
    19  F   -0.243037   0.000155
    20  F   -0.232147   0.000285
    21  C    0.979577  -0.079430
    22  O   -0.159579   0.720171
    23  N   -0.601563   0.058577
    24  C    0.736770  -0.006203
    25  F   -0.231579   0.005325
    26  F   -0.222965   0.021578
    27  C    0.453849   0.000373
    28  F   -0.241074   0.000188
    29  O   -0.501712   0.000076
    30  C    1.005757   0.000006
    31  F   -0.229621   0.000001
    32  F   -0.237881   0.000005
    33  F   -0.240313   0.000025
    34  C    0.813584  -0.001488
    35  F   -0.255934   0.002228
    36  F   -0.225661   0.003231
    37  F   -0.235372   0.000213
 Sum of Mulliken charges =   1.00000   1.00000

 Dipole moment (field-independent basis, Debye):
    X=             -0.1658    Y=              1.4709    Z=             -0.3897  Tot=              1.5307
 Quadrupole moment (field-independent basis, Debye-Ang):
   XX=           -172.7748   YY=           -185.3370   ZZ=           -192.1103
   XY=             -1.7066   XZ=              0.4885   YZ=             -0.2258

 Normal termination of Gaussian 09 at Sun Mar  3 18:22:23 2024.
