 Gaussian 09, Revision D.01,
 Gaussian 09:  ES64L-G09RevD.01 24-Apr-2013

 ----------------------------------------------------------------------
 #p CAM-B3LYP/6-31G(d,p) SCRF=(PCM,Solvent=Generic,Read) NoSymm out=wfn
 ----------------------------------------------------------------------

 ------------------
 Title A584720880_0
 ------------------
 Symbolic Z-matrix:
 Charge =  0 Multiplicity = 1

                          Input orientation:
 ---------------------------------------------------------------------
 Center     Atomic      Atomic             Coordinates (Angstroms)
 Number     Number       Type             X           Y           Z
 ---------------------------------------------------------------------
      1          6           0       -0.021953    4.745326    1.108064
      2          6           0       -0.742831    3.617733    1.101217
      3          7           0       -0.371474    2.351250    0.627285
      4          6           0       -1.287212    1.312516    0.809645
      5          8           0       -2.369411    1.469033    1.377191
      6          7           0       -0.946697    0.093465    0.280973
      7          6           0       -1.954647   -0.956970    0.228650
      8          9           0       -2.681879   -0.959169    1.376987
      9          9           0       -1.281752   -2.153431    0.297811
     10          6           0       -2.879569   -1.002818   -1.023749
     11          9           0       -2.149117   -0.566821   -2.109983
     12          8           0       -3.254903   -2.332695   -1.421476
     13          6           0       -4.218740   -2.934283   -0.596507
     14          9           0       -5.413201   -2.360113   -0.802424
     15          9           0       -3.877222   -2.819676    0.692647
     16          9           0       -4.303504   -4.238793   -0.910212
     17          6           0       -4.033757   -0.013442   -0.867425
     18          9           0       -4.887644   -0.106936   -1.917803
     19          9           0       -3.592069    1.264349   -0.856074
     20          9           0       -4.757168   -0.217920    0.250046
     21          6           0        0.194172   -0.077950   -0.459820
     22          8           0        0.294073   -0.964612   -1.298508
     23          7           0        1.188896    0.825479   -0.230316
     24          6           0        2.500453    0.593261   -0.833171
     25          9           0        3.355824    1.520619   -0.300871
     26          9           0        2.439305    0.851148   -2.164183
     27          6           0        3.158068   -0.790568   -0.569343
     28          9           0        2.544592   -1.766607   -1.291818
     29          8           0        2.952150   -1.121228    0.815396
     30          6           0        3.691146   -2.248291    1.216995
     31          9           0        4.969309   -1.887882    1.412233
     32          9           0        3.618057   -3.233418    0.311696
     33          9           0        3.184826   -2.686871    2.384174
     34          6           0        4.611034   -0.658941   -1.051237
     35          9           0        5.334178    0.170361   -0.265288
     36          9           0        5.245631   -1.856910   -1.027807
     37          9           0        4.702323   -0.204298   -2.319175
     38          6           0        0.805606    2.142682   -0.101837
     39          8           0        1.431897    3.045540   -0.655592
     40          1           0       -0.446603    5.656119    1.521949
     41          1           0        0.988692    4.827720    0.724842
     42          1           0       -1.738878    3.674041    1.543358
 ---------------------------------------------------------------------

 SCF Done:  E(RCAM-B3LYP) =  -2833.85161468     A.U. after   13 cycles

 Alpha  occ. eigenvalues --  -24.84253 -24.84102 -24.83956 -24.83901 -24.83812
 Alpha  occ. eigenvalues --  -24.83780 -24.83777 -24.83703 -24.83482 -24.83417
 Alpha  occ. eigenvalues --  -24.83369 -24.83244 -24.83060 -24.83030 -24.82998
 Alpha  occ. eigenvalues --  -24.82814 -24.82602 -24.82462 -19.33653 -19.33301
 Alpha  occ. eigenvalues --  -19.25537 -19.25536 -19.24731 -14.53732 -14.53083
 Alpha  occ. eigenvalues --  -14.52619 -10.60002 -10.59861 -10.55676 -10.55562
 Alpha  occ. eigenvalues --  -10.53752 -10.53724 -10.49454 -10.49386 -10.47270
 Alpha  occ. eigenvalues --  -10.46969 -10.46776 -10.32724 -10.27569  -1.43712
 Alpha  occ. eigenvalues --   -1.43632  -1.42056  -1.41989  -1.39316  -1.39163
 Alpha  occ. eigenvalues --   -1.35780  -1.35630  -1.34202  -1.33952  -1.33709
 Alpha  occ. eigenvalues --   -1.33676  -1.33104  -1.33048  -1.32437  -1.32389
 Alpha  occ. eigenvalues --   -1.32078  -1.31597  -1.24305  -1.20957  -1.20678
 Alpha  occ. eigenvalues --   -1.18912  -1.18730  -1.10938  -1.09144  -1.08150
 Alpha  occ. eigenvalues --   -0.94065  -0.93261  -0.88533  -0.85934  -0.84705
 Alpha  occ. eigenvalues --   -0.82612  -0.82306  -0.80632  -0.79206  -0.77744
 Alpha  occ. eigenvalues --   -0.76216  -0.75055  -0.74381  -0.73459  -0.73111
 Alpha  occ. eigenvalues --   -0.71623  -0.71365  -0.70839  -0.70769  -0.70142
 Alpha  occ. eigenvalues --   -0.69734  -0.69021  -0.68952  -0.68372  -0.67914
 Alpha  occ. eigenvalues --   -0.67830  -0.67023  -0.66159  -0.65482  -0.65070
 Alpha  occ. eigenvalues --   -0.64129  -0.62974  -0.60486  -0.59481  -0.59300
 Alpha  occ. eigenvalues --   -0.58048  -0.57916  -0.57647  -0.57421  -0.57385
 Alpha  occ. eigenvalues --   -0.56945  -0.56927  -0.56618  -0.56176  -0.55833
 Alpha  occ. eigenvalues --   -0.55615  -0.55456  -0.55235  -0.54998  -0.54924
 Alpha  occ. eigenvalues --   -0.54539  -0.54377  -0.53940  -0.53857  -0.53523
 Alpha  occ. eigenvalues --   -0.53306  -0.52734  -0.52613  -0.52231  -0.52087
 Alpha  occ. eigenvalues --   -0.51841  -0.51676  -0.51437  -0.51146  -0.51018
 Alpha  occ. eigenvalues --   -0.50764  -0.50666  -0.50552  -0.50204  -0.50160
 Alpha  occ. eigenvalues --   -0.49834  -0.49318  -0.49241  -0.48976  -0.48617
 Alpha  occ. eigenvalues --   -0.47860  -0.46825  -0.46240  -0.44755  -0.44268
 Alpha  occ. eigenvalues --   -0.43123  -0.41947  -0.39857  -0.39176  -0.38514
 Alpha  occ. eigenvalues --   -0.37053  -0.32265
 Alpha virt. eigenvalues --   -0.01734  -0.00162   0.02893   0.05713   0.06552
 Alpha virt. eigenvalues --    0.06849   0.07617   0.10907   0.14280   0.15005
 Alpha virt. eigenvalues --    0.15812   0.16681   0.17474   0.18545   0.18771

 Mulliken charges:
               1
     1  C   -0.260111
     2  C    0.112337
     3  N   -0.603670
     4  C    0.835579
     5  O   -0.485851
     6  N   -0.639657
     7  C    0.762770
     8  F   -0.242939
     9  F   -0.273022
    10  C    0.435664
    11  F   -0.270501
    12  O   -0.493468
    13  C    0.977061
    14  F   -0.239716
    15  F   -0.235680
    16  F   -0.235591
    17  C    0.817376
    18  F   -0.257207
    19  F   -0.243689
    20  F   -0.242155
    21  C    0.810087
    22  O   -0.456167
    23  N   -0.631265
    24  C    0.800846
    25  F   -0.270368
    26  F   -0.247649
    27  C    0.405675
    28  F   -0.244223
    29  O   -0.519373
    30  C    0.993975
    31  F   -0.241825
    32  F   -0.236574
    33  F   -0.239040
    34  C    0.815121
    35  F   -0.245879
    36  F   -0.258143
    37  F   -0.240671
    38  C    0.797657
    39  O   -0.451119
    40  H    0.127473
    41  H    0.145055
    42  H    0.168879
 Sum of Mulliken charges =   0.00000

 Dipole moment (field-independent basis, Debye):
    X=             -0.0797    Y=              1.2351    Z=              1.8795  Tot=              2.2504
 Quadrupole moment (field-independent basis, Debye-Ang):
   XX=           -212.5316   YY=           -201.8883   ZZ=           -209.9059
   XY=             -2.3476   XZ=              4.4138   YZ=              2.4861

 Normal termination of Gaussian 09 at Tue Mar  5 18:04:24 2024.
