 Gaussian 09, Revision D.01,
 Gaussian 09:  ES64L-G09RevD.01 24-Apr-2013

 ----------------------------------------------------------------------
 #p CAM-B3LYP/6-31G(d,p) SCRF=(PCM,Solvent=Generic,Read) NoSymm out=wfn
 ----------------------------------------------------------------------

 -------------------
 Title A584720880_p1
 -------------------
 Symbolic Z-matrix:
 Charge =  1 Multiplicity = 2

                          Input orientation:
 ---------------------------------------------------------------------
 Center     Atomic      Atomic             Coordinates (Angstroms)
 Number     Number       Type             X           Y           Z
 ---------------------------------------------------------------------
      1          6           0        0.194072    4.829933   -1.030002
      2          6           0       -0.570532    3.829784   -0.575938
      3          7           0       -0.180018    2.551112   -0.146413
      4          6           0        1.167578    2.197675    0.016220
      5          8           0        2.089792    3.012003    0.030486
      6          7           0        1.399259    0.860038    0.239884
      7          6           0        2.798065    0.454395    0.355555
      8          9           0        3.310387    0.910692    1.525782
      9          9           0        3.489206    1.088639   -0.641483
     10          6           0        3.089305   -1.061531    0.174483
     11          9           0        2.640680   -1.775151    1.241689
     12          8           0        2.332091   -1.521118   -0.959881
     13          6           0        2.689197   -2.822250   -1.356363
     14          9           0        1.720479   -3.291873   -2.164226
     15          9           0        3.838392   -2.771490   -2.047358
     16          9           0        2.812818   -3.640636   -0.302843
     17          6           0        4.618608   -1.185135    0.096863
     18          9           0        5.115635   -0.637545   -1.035056
     19          9           0        5.005508   -2.484628    0.094217
     20          9           0        5.244981   -0.603830    1.141820
     21          6           0        0.475559    0.226756    1.016768
     22          8           0        0.791495   -0.428349    2.002288
     23          7           0       -0.827437    0.419020    0.633981
     24          6           0       -1.805828   -0.495846    1.221221
     25          9           0       -1.222681   -1.735661    1.197446
     26          9           0       -1.964075   -0.179023    2.534219
     27          6           0       -3.196216   -0.658424    0.549188
     28          9           0       -3.999267    0.395779    0.873291
     29          8           0       -3.019667   -0.649039   -0.876807
     30          6           0       -4.207280   -0.941292   -1.569582
     31          9           0       -4.059144   -0.542058   -2.846467
     32          9           0       -4.400835   -2.270424   -1.557773
     33          9           0       -5.265199   -0.316081   -1.035140
     34          6           0       -3.807258   -1.931357    1.154117
     35          9           0       -3.788206   -1.929380    2.504156
     36          9           0       -5.104625   -2.075477    0.788358
     37          9           0       -3.167333   -3.047331    0.735777
     38          6           0       -1.206448    1.663156    0.206035
     39          8           0       -2.391611    1.988893    0.163393
     40          1           0        1.272243    4.783509   -1.128690
     41          1           0       -0.266358    5.766377   -1.334025
     42          1           0       -1.645333    4.017169   -0.555749
 ---------------------------------------------------------------------

 SCF Done:  E(UCAM-B3LYP) =  -2833.56758145     A.U. after   20 cycles

 Alpha  occ. eigenvalues --  -24.86508 -24.86459 -24.86455 -24.86442 -24.85781
 Alpha  occ. eigenvalues --  -24.85660 -24.85511 -24.85502 -24.85457 -24.85391
 Alpha  occ. eigenvalues --  -24.85348 -24.85216 -24.85154 -24.84930 -24.84883
 Alpha  occ. eigenvalues --  -24.84731 -24.84715 -24.84697 -19.35732 -19.35707
 Alpha  occ. eigenvalues --  -19.32827 -19.32200 -19.30587 -14.64571 -14.58488
 Alpha  occ. eigenvalues --  -14.58048 -10.61720 -10.61666 -10.57623 -10.57546
 Alpha  occ. eigenvalues --  -10.57274 -10.57113 -10.54065 -10.53825 -10.52005
 Alpha  occ. eigenvalues --  -10.51938 -10.51697 -10.47933 -10.43167  -1.45255
 Alpha  occ. eigenvalues --   -1.45251  -1.43898  -1.43858  -1.42354  -1.42254
 Alpha  occ. eigenvalues --   -1.38249  -1.37948  -1.35851  -1.35732  -1.35549
 Alpha  occ. eigenvalues --   -1.35503  -1.35208  -1.35182  -1.34442  -1.34406
 Alpha  occ. eigenvalues --   -1.34034  -1.33968  -1.30947  -1.25545  -1.24876
 Alpha  occ. eigenvalues --   -1.23099  -1.22995  -1.18252  -1.15748  -1.14249
 Alpha  occ. eigenvalues --   -1.01900  -0.96770  -0.96259  -0.90558  -0.90171
 Alpha  occ. eigenvalues --   -0.88330  -0.85020  -0.84447  -0.83151  -0.82063
 Alpha  occ. eigenvalues --   -0.80408  -0.78416  -0.78152  -0.76137  -0.75353
 Alpha  occ. eigenvalues --   -0.74670  -0.74067  -0.73042  -0.72777  -0.72763
 Alpha  occ. eigenvalues --   -0.72049  -0.71690  -0.71277  -0.70852  -0.70454
 Alpha  occ. eigenvalues --   -0.70334  -0.70204  -0.69748  -0.69415  -0.68409
 Alpha  occ. eigenvalues --   -0.68181  -0.67940  -0.67809  -0.65094  -0.63721
 Alpha  occ. eigenvalues --   -0.62953  -0.62542  -0.62050  -0.61745  -0.60556
 Alpha  occ. eigenvalues --   -0.59934  -0.59500  -0.59445  -0.59031  -0.58918
 Alpha  occ. eigenvalues --   -0.58611  -0.58365  -0.58105  -0.57978  -0.57730
 Alpha  occ. eigenvalues --   -0.57636  -0.57387  -0.57081  -0.56975  -0.56430
 Alpha  occ. eigenvalues --   -0.56183  -0.55970  -0.55776  -0.55179  -0.54884
 Alpha  occ. eigenvalues --   -0.54762  -0.54622  -0.54009  -0.53941  -0.53861
 Alpha  occ. eigenvalues --   -0.53776  -0.53151  -0.52859  -0.52703  -0.52283
 Alpha  occ. eigenvalues --   -0.52246  -0.51994  -0.51962  -0.51407  -0.51333
 Alpha  occ. eigenvalues --   -0.51024  -0.50957  -0.48756  -0.48577  -0.47517
 Alpha  occ. eigenvalues --   -0.47429  -0.47135  -0.46296  -0.45962  -0.44795
 Alpha  occ. eigenvalues --   -0.44212  -0.42508
 Alpha virt. eigenvalues --   -0.09834  -0.07374  -0.04733   0.00733   0.03579
 Alpha virt. eigenvalues --    0.03948   0.04968   0.05463   0.06857   0.09744
 Alpha virt. eigenvalues --    0.12257   0.12518   0.13221   0.13523   0.14760

  Beta  occ. eigenvalues --  -24.86507 -24.86459 -24.86453 -24.86441 -24.85781
  Beta  occ. eigenvalues --  -24.85660 -24.85511 -24.85502 -24.85457 -24.85391
  Beta  occ. eigenvalues --  -24.85348 -24.85216 -24.85154 -24.84930 -24.84883
  Beta  occ. eigenvalues --  -24.84731 -24.84715 -24.84698 -19.35731 -19.35707
  Beta  occ. eigenvalues --  -19.32688 -19.32048 -19.30581 -14.64040 -14.58481
  Beta  occ. eigenvalues --  -14.58037 -10.61720 -10.61666 -10.57623 -10.57546
  Beta  occ. eigenvalues --  -10.57276 -10.57113 -10.54125 -10.53891 -10.52005
  Beta  occ. eigenvalues --  -10.51938 -10.51700 -10.47657 -10.42364  -1.45255
  Beta  occ. eigenvalues --   -1.45250  -1.43897  -1.43858  -1.42351  -1.42253
  Beta  occ. eigenvalues --   -1.38249  -1.37947  -1.35847  -1.35730  -1.35549
  Beta  occ. eigenvalues --   -1.35503  -1.35208  -1.35182  -1.34441  -1.34406
  Beta  occ. eigenvalues --   -1.34034  -1.33968  -1.30616  -1.25356  -1.24703
  Beta  occ. eigenvalues --   -1.23094  -1.22995  -1.17550  -1.15536  -1.14173
  Beta  occ. eigenvalues --   -0.99696  -0.96566  -0.96253  -0.90305  -0.90041
  Beta  occ. eigenvalues --   -0.87852  -0.84955  -0.84439  -0.83092  -0.81997
  Beta  occ. eigenvalues --   -0.80114  -0.78248  -0.78145  -0.76025  -0.75341
  Beta  occ. eigenvalues --   -0.74599  -0.74046  -0.72902  -0.72774  -0.72740
  Beta  occ. eigenvalues --   -0.72024  -0.71586  -0.71215  -0.70563  -0.70329
  Beta  occ. eigenvalues --   -0.70251  -0.70038  -0.69720  -0.69102  -0.68358
  Beta  occ. eigenvalues --   -0.68121  -0.67903  -0.67377  -0.64432  -0.63582
  Beta  occ. eigenvalues --   -0.62589  -0.62523  -0.61570  -0.61474  -0.60456
  Beta  occ. eigenvalues --   -0.59782  -0.59485  -0.59436  -0.58992  -0.58906
  Beta  occ. eigenvalues --   -0.58483  -0.58283  -0.58013  -0.57829  -0.57655
  Beta  occ. eigenvalues --   -0.57381  -0.57283  -0.57050  -0.56908  -0.56409
  Beta  occ. eigenvalues --   -0.56151  -0.55860  -0.55689  -0.55114  -0.54871
  Beta  occ. eigenvalues --   -0.54737  -0.54589  -0.53955  -0.53929  -0.53799
  Beta  occ. eigenvalues --   -0.53746  -0.52906  -0.52838  -0.52299  -0.52254
  Beta  occ. eigenvalues --   -0.52011  -0.51961  -0.51402  -0.51329  -0.51047
  Beta  occ. eigenvalues --   -0.50956  -0.50074  -0.48702  -0.48550  -0.47393
  Beta  occ. eigenvalues --   -0.47287  -0.47059  -0.45879  -0.44474  -0.43941
  Beta  occ. eigenvalues --   -0.42416
  Beta virt. eigenvalues --   -0.25318  -0.06999  -0.06410  -0.03771   0.02543
  Beta virt. eigenvalues --    0.03629   0.03965   0.05000   0.05695   0.07194
  Beta virt. eigenvalues --    0.10141   0.12380   0.12864   0.13392   0.13806

 Mulliken charges and spin densities:
               1          2
     1  C   -0.100302   0.565000
     2  C    0.252157   0.210113
     3  N   -0.590882   0.219986
     4  C    0.860569  -0.033777
     5  O   -0.416854   0.056292
     6  N   -0.621095   0.004734
     7  C    0.799600  -0.000341
     8  F   -0.239642   0.000489
     9  F   -0.263235   0.000294
    10  C    0.405702  -0.000093
    11  F   -0.243399   0.000069
    12  O   -0.519775   0.000009
    13  C    0.999027  -0.000004
    14  F   -0.237462   0.000000
    15  F   -0.239007   0.000001
    16  F   -0.234866   0.000001
    17  C    0.821963  -0.000010
    18  F   -0.243902   0.000006
    19  F   -0.253655  -0.000008
    20  F   -0.238805   0.000003
    21  C    0.799700  -0.000544
    22  O   -0.409408   0.002079
    23  N   -0.640386   0.004035
    24  C    0.800283  -0.000384
    25  F   -0.263757   0.000025
    26  F   -0.242129   0.000417
    27  C    0.417384  -0.000096
    28  F   -0.252399   0.000085
    29  O   -0.521161   0.000234
    30  C    0.998345   0.000014
    31  F   -0.238144  -0.000001
    32  F   -0.239918   0.000024
    33  F   -0.235313  -0.000001
    34  C    0.822996   0.000008
    35  F   -0.238513   0.000001
    36  F   -0.253475   0.000002
    37  F   -0.243643   0.000001
    38  C    0.904999  -0.034831
    39  O   -0.435934   0.061643
    40  H    0.251849  -0.022005
    41  H    0.249884  -0.025084
    42  H    0.272604  -0.008386
 Sum of Mulliken charges =   1.00000   1.00000

 Dipole moment (field-independent basis, Debye):
    X=             -1.1237    Y=             17.1045    Z=             -4.1066  Tot=             17.6264
 Quadrupole moment (field-independent basis, Debye-Ang):
   XX=           -204.3165   YY=           -125.3334   ZZ=           -201.1698
   XY=             -5.3788   XZ=             -0.5085   YZ=            -13.5318

 Normal termination of Gaussian 09 at Sun Mar  3 18:08:23 2024.
