 Gaussian 09, Revision D.01,
 Gaussian 09:  ES64L-G09RevD.01 24-Apr-2013

 ----------------------------------------------------------------------
 #p CAM-B3LYP/6-31G(d,p) SCRF=(PCM,Solvent=Generic,Read) NoSymm out=wfn
 ----------------------------------------------------------------------

 ---------------
 Title TAIC1_pos
 ---------------
 Symbolic Z-matrix:
 Charge =  1 Multiplicity = 2

                          Input orientation:
 ---------------------------------------------------------------------
 Center     Atomic      Atomic             Coordinates (Angstroms)
 Number     Number       Type             X           Y           Z
 ---------------------------------------------------------------------
      1          8           0        2.051860    0.871645    1.127514
      2          6           0        0.929518    0.371095    1.027966
      3          7           0       -0.157706    1.099255    0.595926
      4          6           0        0.044926    2.503921    0.242207
      5          6           0       -0.104792    3.417752    1.464940
      6          6           0       -0.142391    4.910064    1.124746
      7          6           0        1.081277    5.488194    0.414755
      8          9           0        1.189228    4.894153   -0.804045
      9          9           0        0.818353    6.804076    0.156946
     10          6           0        2.404951    5.380845    1.213067
     11          9           0        2.187433    5.885340    2.465115
     12          9           0        2.758951    4.087269    1.416071
     13          8           0        3.537378    6.065924    0.738250
     14          6           0        3.815909    5.717367   -0.585716
     15          9           0        5.101992    6.025174   -0.848232
     16          9           0        3.034984    6.431163   -1.415435
     17          9           0        3.639029    4.404209   -0.809566
     18          6           0       -1.442240    0.597359    0.560983
     19          8           0       -2.405008    1.302270    0.251196
     20          7           0       -1.588313   -0.735045    0.884461
     21          6           0       -2.921162   -1.330442    0.790895
     22          6           0       -3.222888   -1.811287   -0.633412
     23          6           0       -4.460371   -2.710958   -0.746957
     24          6           0       -5.758337   -2.052321   -0.281763
     25          9           0       -5.874189   -0.831145   -0.865044
     26          9           0       -5.668347   -1.819527    1.058602
     27          6           0       -7.008687   -2.921030   -0.574773
     28          9           0       -8.137276   -2.355282   -0.076761
     29          9           0       -6.872037   -4.098424    0.106970
     30          8           0       -7.262905   -3.305831   -1.904078
     31          6           0       -7.425561   -2.188409   -2.730476
     32          9           0       -6.212736   -1.747198   -3.113182
     33          9           0       -8.100658   -2.567116   -3.833569
     34          9           0       -8.102319   -1.196723   -2.131671
     35          6           0       -0.525445   -1.564514    1.172792
     36          8           0       -0.659451   -2.786653    1.267545
     37          7           0        0.698996   -0.953224    1.333994
     38          6           0        1.841654   -1.778639    1.717571
     39          6           0        2.565485   -2.342863    0.489379
     40          6           0        3.819919   -3.115947    0.892197
     41          6           0        4.502408   -3.850520   -0.261310
     42          9           0        3.656384   -4.817341   -0.717879
     43          9           0        5.571997   -4.518346    0.269554
     44          6           0        4.977431   -2.960440   -1.427828
     45          9           0        3.911059   -2.422838   -2.071142
     46          9           0        5.654737   -3.707093   -2.335231
     47          8           0        5.824325   -1.926290   -0.983573
     48          6           0        5.976850   -0.977221   -2.000060
     49          9           0        4.874279   -0.208409   -2.080860
     50          9           0        7.018121   -0.181451   -1.677858
     51          9           0        6.230461   -1.540818   -3.193610
     52          1           0        1.042380    2.618692   -0.195516
     53          1           0       -0.679032    2.790322   -0.529591
     54          1           0        0.692659    3.211907    2.187610
     55          1           0       -1.040735    3.172208    1.983495
     56          1           0       -0.318403    5.477929    2.046722
     57          1           0       -1.019597    5.096628    0.491844
     58          1           0       -2.989690   -2.169829    1.492811
     59          1           0       -3.662116   -0.586497    1.103223
     60          1           0       -3.336827   -0.944476   -1.296134
     61          1           0       -2.363429   -2.374550   -1.019024
     62          1           0       -4.288291   -3.622836   -0.162656
     63          1           0       -4.550660   -3.012096   -1.796506
     64          1           0        1.501191   -2.599835    2.359491
     65          1           0        2.536013   -1.175901    2.315209
     66          1           0        2.837413   -1.517737   -0.178126
     67          1           0        1.885715   -2.995118   -0.071653
     68          1           0        3.549528   -3.862137    1.650044
     69          1           0        4.536804   -2.440402    1.374290
 ---------------------------------------------------------------------

 SCF Done:  E(UCAM-B3LYP) =  -3522.08486239     A.U. after   53 cycles

 Alpha  occ. eigenvalues --  -24.85354 -24.85126 -24.84899 -24.84895 -24.84773
 Alpha  occ. eigenvalues --  -24.84668 -24.84320 -24.84192 -24.84167 -24.84139
 Alpha  occ. eigenvalues --  -24.84127 -24.83949 -24.83926 -24.83794 -24.83673
 Alpha  occ. eigenvalues --  -24.83456 -24.83261 -24.83010 -24.82296 -24.81985
 Alpha  occ. eigenvalues --  -24.81696 -19.34504 -19.33996 -19.33713 -19.32921
 Alpha  occ. eigenvalues --  -19.31939 -19.29688 -14.65463 -14.57694 -14.56006
 Alpha  occ. eigenvalues --  -10.61098 -10.60592 -10.60424 -10.54705 -10.54323
 Alpha  occ. eigenvalues --  -10.54291 -10.52381 -10.52340 -10.50120 -10.49597
 Alpha  occ. eigenvalues --  -10.48437 -10.48142 -10.39761 -10.36518 -10.35509
 Alpha  occ. eigenvalues --  -10.34726 -10.33125 -10.31492 -10.31355 -10.31323
 Alpha  occ. eigenvalues --  -10.31058  -1.44708  -1.44200  -1.44089  -1.40631
 Alpha  occ. eigenvalues --   -1.40530  -1.40210  -1.38752  -1.37831  -1.37034
 Alpha  occ. eigenvalues --   -1.35307  -1.34707  -1.34678  -1.34539  -1.33797
 Alpha  occ. eigenvalues --   -1.33784  -1.33221  -1.33100  -1.32851  -1.32584
 Alpha  occ. eigenvalues --   -1.31370  -1.30880  -1.30075  -1.24840  -1.23398
 Alpha  occ. eigenvalues --   -1.22561  -1.22120  -1.21932  -1.17680  -1.13700
 Alpha  occ. eigenvalues --   -1.11892  -0.97579  -0.95218  -0.94491  -0.92659
 Alpha  occ. eigenvalues --   -0.91124  -0.90375  -0.87947  -0.87784  -0.86629
 Alpha  occ. eigenvalues --   -0.84308  -0.84020  -0.82450  -0.80979  -0.80713
 Alpha  occ. eigenvalues --   -0.79536  -0.78504  -0.77153  -0.76543  -0.75876
 Alpha  occ. eigenvalues --   -0.74793  -0.74436  -0.73045  -0.72907  -0.72390
 Alpha  occ. eigenvalues --   -0.72315  -0.71974  -0.71510  -0.71467  -0.71313
 Alpha  occ. eigenvalues --   -0.71071  -0.70379  -0.69083  -0.68968  -0.68924
 Alpha  occ. eigenvalues --   -0.68499  -0.68128  -0.67495  -0.67217  -0.66552
 Alpha  occ. eigenvalues --   -0.65368  -0.65132  -0.64498  -0.64187  -0.63136
 Alpha  occ. eigenvalues --   -0.62942  -0.62478  -0.62257  -0.62145  -0.61827
 Alpha  occ. eigenvalues --   -0.61461  -0.60865  -0.60507  -0.60119  -0.59819
 Alpha  occ. eigenvalues --   -0.58940  -0.58640  -0.58343  -0.58296  -0.58070
 Alpha  occ. eigenvalues --   -0.57998  -0.57609  -0.57035  -0.56881  -0.56665
 Alpha  occ. eigenvalues --   -0.56577  -0.56214  -0.55883  -0.55541  -0.55422
 Alpha  occ. eigenvalues --   -0.55317  -0.55117  -0.54586  -0.54420  -0.54213
 Alpha  occ. eigenvalues --   -0.54132  -0.54077  -0.53710  -0.53529  -0.53303
 Alpha  occ. eigenvalues --   -0.53108  -0.52799  -0.52640  -0.52477  -0.52329
 Alpha  occ. eigenvalues --   -0.52141  -0.52080  -0.51998  -0.51852  -0.51641
 Alpha  occ. eigenvalues --   -0.51519  -0.51448  -0.51371  -0.50940  -0.50916
 Alpha  occ. eigenvalues --   -0.50720  -0.50664  -0.50613  -0.50428  -0.50125
 Alpha  occ. eigenvalues --   -0.49994  -0.49638  -0.49099  -0.48457  -0.48117
 Alpha  occ. eigenvalues --   -0.47878  -0.47615  -0.47296  -0.47114  -0.46705
 Alpha  occ. eigenvalues --   -0.46621  -0.46356  -0.45927  -0.45251  -0.44710
 Alpha  occ. eigenvalues --   -0.44364  -0.44272  -0.42856  -0.42358  -0.42263
 Alpha  occ. eigenvalues --   -0.41366
 Alpha virt. eigenvalues --   -0.05452  -0.04926   0.06010   0.07414   0.08150
 Alpha virt. eigenvalues --    0.08671   0.09087   0.09772   0.09820   0.10453
 Alpha virt. eigenvalues --    0.10741   0.11350   0.11858   0.12383   0.12976

  Beta  occ. eigenvalues --  -24.85354 -24.85125 -24.84899 -24.84894 -24.84773
  Beta  occ. eigenvalues --  -24.84668 -24.84320 -24.84186 -24.84167 -24.84139
  Beta  occ. eigenvalues --  -24.84127 -24.83949 -24.83926 -24.83794 -24.83673
  Beta  occ. eigenvalues --  -24.83456 -24.83261 -24.83010 -24.82296 -24.81985
  Beta  occ. eigenvalues --  -24.81694 -19.34503 -19.33996 -19.33713 -19.32409
  Beta  occ. eigenvalues --  -19.31695 -19.29441 -14.64228 -14.57448 -14.56022
  Beta  occ. eigenvalues --  -10.61098 -10.60592 -10.60424 -10.54706 -10.54324
  Beta  occ. eigenvalues --  -10.54291 -10.52522 -10.52521 -10.50195 -10.49597
  Beta  occ. eigenvalues --  -10.48437 -10.48139 -10.39740 -10.36511 -10.35505
  Beta  occ. eigenvalues --  -10.34574 -10.33111 -10.31459 -10.31352 -10.31323
  Beta  occ. eigenvalues --  -10.31051  -1.44708  -1.44200  -1.44089  -1.40628
  Beta  occ. eigenvalues --   -1.40529  -1.40210  -1.38749  -1.37831  -1.37031
  Beta  occ. eigenvalues --   -1.35307  -1.34707  -1.34678  -1.34538  -1.33797
  Beta  occ. eigenvalues --   -1.33784  -1.33220  -1.33095  -1.32850  -1.32583
  Beta  occ. eigenvalues --   -1.31370  -1.30877  -1.29067  -1.24190  -1.22910
  Beta  occ. eigenvalues --   -1.22560  -1.22120  -1.21931  -1.15968  -1.12862
  Beta  occ. eigenvalues --   -1.11624  -0.97175  -0.95115  -0.94457  -0.92504
  Beta  occ. eigenvalues --   -0.90980  -0.90264  -0.87747  -0.87625  -0.86598
  Beta  occ. eigenvalues --   -0.84203  -0.83870  -0.82318  -0.80825  -0.80604
  Beta  occ. eigenvalues --   -0.79448  -0.78297  -0.77072  -0.76503  -0.75565
  Beta  occ. eigenvalues --   -0.74704  -0.74364  -0.72990  -0.72905  -0.72371
  Beta  occ. eigenvalues --   -0.72299  -0.71940  -0.71488  -0.71459  -0.71180
  Beta  occ. eigenvalues --   -0.71056  -0.69518  -0.69070  -0.68812  -0.68409
  Beta  occ. eigenvalues --   -0.68388  -0.67670  -0.67347  -0.66824  -0.66514
  Beta  occ. eigenvalues --   -0.65341  -0.65044  -0.64279  -0.64009  -0.62983
  Beta  occ. eigenvalues --   -0.62741  -0.62246  -0.62136  -0.61985  -0.61503
  Beta  occ. eigenvalues --   -0.61190  -0.60371  -0.59918  -0.59613  -0.59084
  Beta  occ. eigenvalues --   -0.58748  -0.58623  -0.58310  -0.58292  -0.57959
  Beta  occ. eigenvalues --   -0.57628  -0.57560  -0.57011  -0.56794  -0.56658
  Beta  occ. eigenvalues --   -0.56517  -0.56102  -0.55803  -0.55422  -0.55355
  Beta  occ. eigenvalues --   -0.55238  -0.55031  -0.54518  -0.54203  -0.54135
  Beta  occ. eigenvalues --   -0.54119  -0.53765  -0.53672  -0.53205  -0.53176
  Beta  occ. eigenvalues --   -0.53081  -0.52739  -0.52461  -0.52361  -0.52293
  Beta  occ. eigenvalues --   -0.52073  -0.52038  -0.51911  -0.51712  -0.51586
  Beta  occ. eigenvalues --   -0.51476  -0.51390  -0.51288  -0.50927  -0.50904
  Beta  occ. eigenvalues --   -0.50676  -0.50644  -0.50478  -0.50362  -0.50107
  Beta  occ. eigenvalues --   -0.49561  -0.49061  -0.48892  -0.48156  -0.47807
  Beta  occ. eigenvalues --   -0.47667  -0.47429  -0.46922  -0.46662  -0.46590
  Beta  occ. eigenvalues --   -0.46182  -0.45312  -0.45047  -0.44689  -0.44277
  Beta  occ. eigenvalues --   -0.44035  -0.42819  -0.41864  -0.40680  -0.40389
  Beta virt. eigenvalues --   -0.28120  -0.04743  -0.03502   0.06754   0.07679
  Beta virt. eigenvalues --    0.08302   0.08771   0.09173   0.09819   0.09961
  Beta virt. eigenvalues --    0.10627   0.10849   0.11435   0.11889   0.12458

 Mulliken charges and spin densities:
               1          2
     1  O   -0.457240   0.097675
     2  C    0.864545  -0.043775
     3  N   -0.569722   0.000043
     4  C   -0.077080   0.001736
     5  C   -0.220575   0.002968
     6  C   -0.268963   0.000142
     7  C    0.547889   0.000029
     8  F   -0.277054  -0.000006
     9  F   -0.283900   0.000048
    10  C    0.742935   0.000005
    11  F   -0.268330   0.000001
    12  F   -0.250642   0.000011
    13  O   -0.489498   0.000003
    14  C    0.979659   0.000000
    15  F   -0.242386   0.000000
    16  F   -0.242897   0.000000
    17  F   -0.245009   0.000000
    18  C    0.866213  -0.106222
    19  O   -0.414069   0.204631
    20  N   -0.433351   0.563408
    21  C   -0.107163   0.002540
    22  C   -0.224895   0.076963
    23  C   -0.264181   0.007689
    24  C    0.546320  -0.000303
    25  F   -0.274057   0.000112
    26  F   -0.276961   0.001102
    27  C    0.738682  -0.000135
    28  F   -0.254352   0.000013
    29  F   -0.268184   0.000018
    30  O   -0.488765   0.000236
    31  C    0.983588  -0.000022
    32  F   -0.247652   0.000061
    33  F   -0.238565   0.000002
    34  F   -0.235911   0.000008
    35  C    0.863056  -0.084957
    36  O   -0.435815   0.099334
    37  N   -0.544952   0.117288
    38  C   -0.083735   0.001479
    39  C   -0.219911   0.016451
    40  C   -0.265709   0.001324
    41  C    0.546827   0.001002
    42  F   -0.277486   0.000069
    43  F   -0.283000   0.000553
    44  C    0.760205   0.000011
    45  F   -0.262440   0.000154
    46  F   -0.260703   0.000030
    47  O   -0.510411  -0.000001
    48  C    0.990796  -0.000002
    49  F   -0.249081   0.000000
    50  F   -0.244626   0.000000
    51  F   -0.240231   0.000001
    52  H    0.172479  -0.000370
    53  H    0.172159   0.000162
    54  H    0.146945   0.000716
    55  H    0.138456  -0.000049
    56  H    0.162980   0.000140
    57  H    0.162387   0.000206
    58  H    0.219052   0.016328
    59  H    0.220202   0.014156
    60  H    0.176775  -0.000907
    61  H    0.170684  -0.002764
    62  H    0.173000   0.000157
    63  H    0.174718   0.006737
    64  H    0.182457   0.003120
    65  H    0.186748   0.001209
    66  H    0.141676  -0.000044
    67  H    0.146517  -0.000697
    68  H    0.161129   0.000235
    69  H    0.160423  -0.000053
 Sum of Mulliken charges =   1.00000   1.00000

 Dipole moment (field-independent basis, Debye):
    X=             -6.3276    Y=             -3.3508    Z=              5.0206  Tot=              8.7449
 Quadrupole moment (field-independent basis, Debye-Ang):
   XX=           -273.7380   YY=           -270.2220   ZZ=           -260.6823
   XY=              0.9735   XZ=              7.0595   YZ=             -0.6163

 Normal termination of Gaussian 09 at Sun Feb  2 08:07:40 2025.
