 Gaussian 09, Revision D.01,
 Gaussian 09:  ES64L-G09RevD.01 24-Apr-2013

 ----------------------------------------------------------------------
 #p CAM-B3LYP/6-31G(d,p) SCRF=(PCM,Solvent=Generic,Read) NoSymm out=wfn
 ----------------------------------------------------------------------

 ---------------
 Title TAIC1_neu
 ---------------
 Symbolic Z-matrix:
 Charge =  0 Multiplicity = 1

                          Input orientation:
 ---------------------------------------------------------------------
 Center     Atomic      Atomic             Coordinates (Angstroms)
 Number     Number       Type             X           Y           Z
 ---------------------------------------------------------------------
      1          8           0        2.051860    0.871645    1.127514
      2          6           0        0.929518    0.371095    1.027966
      3          7           0       -0.157706    1.099255    0.595926
      4          6           0        0.044926    2.503921    0.242207
      5          6           0       -0.104792    3.417752    1.464940
      6          6           0       -0.142391    4.910064    1.124746
      7          6           0        1.081277    5.488194    0.414755
      8          9           0        1.189228    4.894153   -0.804045
      9          9           0        0.818353    6.804076    0.156946
     10          6           0        2.404951    5.380845    1.213067
     11          9           0        2.187433    5.885340    2.465115
     12          9           0        2.758951    4.087269    1.416071
     13          8           0        3.537378    6.065924    0.738250
     14          6           0        3.815909    5.717367   -0.585716
     15          9           0        5.101992    6.025174   -0.848232
     16          9           0        3.034984    6.431163   -1.415435
     17          9           0        3.639029    4.404209   -0.809566
     18          6           0       -1.442240    0.597359    0.560983
     19          8           0       -2.405008    1.302270    0.251196
     20          7           0       -1.588313   -0.735045    0.884461
     21          6           0       -2.921162   -1.330442    0.790895
     22          6           0       -3.222888   -1.811287   -0.633412
     23          6           0       -4.460371   -2.710958   -0.746957
     24          6           0       -5.758337   -2.052321   -0.281763
     25          9           0       -5.874189   -0.831145   -0.865044
     26          9           0       -5.668347   -1.819527    1.058602
     27          6           0       -7.008687   -2.921030   -0.574773
     28          9           0       -8.137276   -2.355282   -0.076761
     29          9           0       -6.872037   -4.098424    0.106970
     30          8           0       -7.262905   -3.305831   -1.904078
     31          6           0       -7.425561   -2.188409   -2.730476
     32          9           0       -6.212736   -1.747198   -3.113182
     33          9           0       -8.100658   -2.567116   -3.833569
     34          9           0       -8.102319   -1.196723   -2.131671
     35          6           0       -0.525445   -1.564514    1.172792
     36          8           0       -0.659451   -2.786653    1.267545
     37          7           0        0.698996   -0.953224    1.333994
     38          6           0        1.841654   -1.778639    1.717571
     39          6           0        2.565485   -2.342863    0.489379
     40          6           0        3.819919   -3.115947    0.892197
     41          6           0        4.502408   -3.850520   -0.261310
     42          9           0        3.656384   -4.817341   -0.717879
     43          9           0        5.571997   -4.518346    0.269554
     44          6           0        4.977431   -2.960440   -1.427828
     45          9           0        3.911059   -2.422838   -2.071142
     46          9           0        5.654737   -3.707093   -2.335231
     47          8           0        5.824325   -1.926290   -0.983573
     48          6           0        5.976850   -0.977221   -2.000060
     49          9           0        4.874279   -0.208409   -2.080860
     50          9           0        7.018121   -0.181451   -1.677858
     51          9           0        6.230461   -1.540818   -3.193610
     52          1           0        1.042380    2.618692   -0.195516
     53          1           0       -0.679032    2.790322   -0.529591
     54          1           0        0.692659    3.211907    2.187610
     55          1           0       -1.040735    3.172208    1.983495
     56          1           0       -0.318403    5.477929    2.046722
     57          1           0       -1.019597    5.096628    0.491844
     58          1           0       -2.989690   -2.169829    1.492811
     59          1           0       -3.662116   -0.586497    1.103223
     60          1           0       -3.336827   -0.944476   -1.296134
     61          1           0       -2.363429   -2.374550   -1.019024
     62          1           0       -4.288291   -3.622836   -0.162656
     63          1           0       -4.550660   -3.012096   -1.796506
     64          1           0        1.501191   -2.599835    2.359491
     65          1           0        2.536013   -1.175901    2.315209
     66          1           0        2.837413   -1.517737   -0.178126
     67          1           0        1.885715   -2.995118   -0.071653
     68          1           0        3.549528   -3.862137    1.650044
     69          1           0        4.536804   -2.440402    1.374290
 ---------------------------------------------------------------------

 SCF Done:  E(RCAM-B3LYP) =  -3522.39804323     A.U. after   13 cycles

 Alpha  occ. eigenvalues --  -24.83715 -24.83406 -24.83385 -24.83264 -24.83180
 Alpha  occ. eigenvalues --  -24.83024 -24.82866 -24.82806 -24.82796 -24.82720
 Alpha  occ. eigenvalues --  -24.82057 -24.82042 -24.81908 -24.81712 -24.81508
 Alpha  occ. eigenvalues --  -24.80996 -24.80959 -24.80857 -24.80388 -24.80242
 Alpha  occ. eigenvalues --  -24.79878 -19.32598 -19.32390 -19.32217 -19.22155
 Alpha  occ. eigenvalues --  -19.22039 -19.21994 -14.48837 -14.48758 -14.48753
 Alpha  occ. eigenvalues --  -10.59395 -10.59110 -10.59030 -10.52572 -10.52558
 Alpha  occ. eigenvalues --  -10.52462 -10.46460 -10.46440 -10.46049 -10.43318
 Alpha  occ. eigenvalues --  -10.43265 -10.43238 -10.31405 -10.31023 -10.31001
 Alpha  occ. eigenvalues --  -10.28916 -10.28804 -10.28684 -10.27727 -10.27643
 Alpha  occ. eigenvalues --  -10.27516  -1.43004  -1.42717  -1.42673  -1.38832
 Alpha  occ. eigenvalues --   -1.38472  -1.38384  -1.35977  -1.35956  -1.35182
 Alpha  occ. eigenvalues --   -1.33584  -1.33223  -1.33215  -1.32894  -1.32485
 Alpha  occ. eigenvalues --   -1.32380  -1.31573  -1.31109  -1.30780  -1.29933
 Alpha  occ. eigenvalues --   -1.29541  -1.29046  -1.20663  -1.20515  -1.20428
 Alpha  occ. eigenvalues --   -1.20007  -1.15335  -1.15282  -1.06875  -1.04328
 Alpha  occ. eigenvalues --   -1.04255  -0.92058  -0.91574  -0.91374  -0.88086
 Alpha  occ. eigenvalues --   -0.87086  -0.86714  -0.83834  -0.82922  -0.82410
 Alpha  occ. eigenvalues --   -0.80200  -0.79731  -0.79145  -0.76299  -0.76228
 Alpha  occ. eigenvalues --   -0.75386  -0.74087  -0.73743  -0.72322  -0.71449
 Alpha  occ. eigenvalues --   -0.71260  -0.71088  -0.70870  -0.70635  -0.70606
 Alpha  occ. eigenvalues --   -0.70244  -0.69968  -0.69873  -0.69436  -0.69090
 Alpha  occ. eigenvalues --   -0.69018  -0.67252  -0.66941  -0.66904  -0.65884
 Alpha  occ. eigenvalues --   -0.65670  -0.65573  -0.63886  -0.63516  -0.63213
 Alpha  occ. eigenvalues --   -0.62352  -0.61165  -0.60919  -0.60743  -0.60082
 Alpha  occ. eigenvalues --   -0.59688  -0.59589  -0.58970  -0.57182  -0.56978
 Alpha  occ. eigenvalues --   -0.56925  -0.56727  -0.56271  -0.56141  -0.55736
 Alpha  occ. eigenvalues --   -0.55435  -0.55244  -0.55165  -0.55048  -0.54856
 Alpha  occ. eigenvalues --   -0.54415  -0.54254  -0.54041  -0.53878  -0.53674
 Alpha  occ. eigenvalues --   -0.53577  -0.53245  -0.53048  -0.52848  -0.52605
 Alpha  occ. eigenvalues --   -0.52547  -0.52295  -0.52205  -0.51809  -0.51622
 Alpha  occ. eigenvalues --   -0.51424  -0.51343  -0.51174  -0.51022  -0.50769
 Alpha  occ. eigenvalues --   -0.50689  -0.50488  -0.50304  -0.50126  -0.50110
 Alpha  occ. eigenvalues --   -0.49988  -0.49819  -0.49596  -0.49347  -0.49176
 Alpha  occ. eigenvalues --   -0.48924  -0.48868  -0.48755  -0.48567  -0.48373
 Alpha  occ. eigenvalues --   -0.48198  -0.48150  -0.47802  -0.47698  -0.46469
 Alpha  occ. eigenvalues --   -0.46083  -0.45863  -0.45763  -0.45187  -0.44978
 Alpha  occ. eigenvalues --   -0.44761  -0.44058  -0.44018  -0.43751  -0.42163
 Alpha  occ. eigenvalues --   -0.42016  -0.41600  -0.41174  -0.40597  -0.40335
 Alpha  occ. eigenvalues --   -0.38167  -0.38032  -0.35732  -0.34564  -0.34478
 Alpha  occ. eigenvalues --   -0.34174
 Alpha virt. eigenvalues --    0.03296   0.03427   0.10575   0.10685   0.10901
 Alpha virt. eigenvalues --    0.12017   0.12097   0.12628   0.14224   0.14551
 Alpha virt. eigenvalues --    0.15242   0.15449   0.16508   0.17053   0.17202

 Mulliken charges:
               1
     1  O   -0.536492
     2  C    0.823955
     3  N   -0.571534
     4  C   -0.054632
     5  C   -0.213422
     6  C   -0.268151
     7  C    0.546947
     8  F   -0.277070
     9  F   -0.289108
    10  C    0.741151
    11  F   -0.270974
    12  F   -0.247232
    13  O   -0.493334
    14  C    0.978195
    15  F   -0.244757
    16  F   -0.244162
    17  F   -0.242513
    18  C    0.823106
    19  O   -0.538174
    20  N   -0.571114
    21  C   -0.056912
    22  C   -0.204894
    23  C   -0.261519
    24  C    0.547921
    25  F   -0.279527
    26  F   -0.279658
    27  C    0.733002
    28  F   -0.260108
    29  F   -0.271933
    30  O   -0.492415
    31  C    0.981294
    32  F   -0.245372
    33  F   -0.242335
    34  F   -0.237749
    35  C    0.821345
    36  O   -0.537552
    37  N   -0.568441
    38  C   -0.057872
    39  C   -0.212240
    40  C   -0.262908
    41  C    0.542880
    42  F   -0.279927
    43  F   -0.288803
    44  C    0.758950
    45  F   -0.260558
    46  F   -0.264872
    47  O   -0.511138
    48  C    0.989060
    49  F   -0.246430
    50  F   -0.246833
    51  F   -0.242449
    52  H    0.147683
    53  H    0.147897
    54  H    0.134296
    55  H    0.130836
    56  H    0.150305
    57  H    0.155162
    58  H    0.146610
    59  H    0.153112
    60  H    0.135405
    61  H    0.131344
    62  H    0.149489
    63  H    0.142863
    64  H    0.150579
    65  H    0.151113
    66  H    0.128778
    67  H    0.133152
    68  H    0.150075
    69  H    0.148609
 Sum of Mulliken charges =   0.00000

 Dipole moment (field-independent basis, Debye):
    X=             -1.2018    Y=             -0.4088    Z=              1.7113  Tot=              2.1308
 Quadrupole moment (field-independent basis, Debye-Ang):
   XX=           -311.1655   YY=           -295.0064   ZZ=           -270.9401
   XY=             -5.5699   XZ=              6.1290   YZ=              1.0433

 Normal termination of Gaussian 09 at Sun Feb  2 08:00:12 2025.
