 Gaussian 09, Revision D.01,
 Gaussian 09:  ES64L-G09RevD.01 24-Apr-2013

 ----------------------------------------------------------------------
 #p CAM-B3LYP/6-31G(d,p) opt SCRF=(PCM,Solvent=Generic,Read) NoSymm out
 =wfn
 ----------------------------------------------------------------------

 ---------------------
 Title AEPYridine2_neu
 ---------------------
 Symbolic Z-matrix:
 Charge =  0 Multiplicity = 1

 SCF Done:  E(RCAM-B3LYP) =  -1985.74456635     A.U. after   13 cycles
 SCF Done:  E(RCAM-B3LYP) =  -1985.76552284     A.U. after   12 cycles
 SCF Done:  E(RCAM-B3LYP) =  -1985.77310050     A.U. after   12 cycles
 SCF Done:  E(RCAM-B3LYP) =  -1985.77577461     A.U. after   12 cycles
 SCF Done:  E(RCAM-B3LYP) =  -1985.77682495     A.U. after   12 cycles
 SCF Done:  E(RCAM-B3LYP) =  -1985.77646231     A.U. after   12 cycles
 SCF Done:  E(RCAM-B3LYP) =  -1985.77728079     A.U. after   10 cycles
 SCF Done:  E(RCAM-B3LYP) =  -1985.77768778     A.U. after   12 cycles
 SCF Done:  E(RCAM-B3LYP) =  -1985.77750254     A.U. after   14 cycles
 SCF Done:  E(RCAM-B3LYP) =  -1985.77801230     A.U. after   10 cycles
 SCF Done:  E(RCAM-B3LYP) =  -1985.77816584     A.U. after   11 cycles
 SCF Done:  E(RCAM-B3LYP) =  -1985.77826136     A.U. after   11 cycles
 SCF Done:  E(RCAM-B3LYP) =  -1985.77829380     A.U. after   11 cycles
 SCF Done:  E(RCAM-B3LYP) =  -1985.77830695     A.U. after   11 cycles
 SCF Done:  E(RCAM-B3LYP) =  -1985.77831113     A.U. after   10 cycles
 SCF Done:  E(RCAM-B3LYP) =  -1985.77831590     A.U. after    9 cycles
 SCF Done:  E(RCAM-B3LYP) =  -1985.77831714     A.U. after    8 cycles
 SCF Done:  E(RCAM-B3LYP) =  -1985.77831744     A.U. after    8 cycles
 SCF Done:  E(RCAM-B3LYP) =  -1985.77831758     A.U. after    7 cycles
 SCF Done:  E(RCAM-B3LYP) =  -1985.77831765     A.U. after    6 cycles
 Optimization completed.
    -- Stationary point found.

                          Input orientation:
 ---------------------------------------------------------------------
 Center     Atomic      Atomic             Coordinates (Angstroms)
 Number     Number       Type             X           Y           Z
 ---------------------------------------------------------------------
      1          9           0       -2.553464    1.583740    2.770435
      2          6           0       -2.441563    1.764076    1.449974
      3          9           0       -1.939255    2.979039    1.237746
      4          6           0       -3.799902    1.566381    0.748423
      5          9           0       -4.821228    1.889184    1.550056
      6          9           0       -3.832950    2.347281   -0.343652
      7          6           0       -3.779843    0.087365    0.289638
      8          9           0       -4.343757   -0.013437   -0.940978
      9          6           0       -4.554840   -0.837892    1.246200
     10          9           0       -4.131966   -0.589725    2.502751
     11          6           0       -4.438182   -2.332512    0.900523
     12          8           0       -4.296441   -3.073194    1.991280
     13          8           0       -4.520162   -2.735520   -0.227128
     14          9           0       -5.864980   -0.515381    1.154094
     15          6           0       -2.253343   -0.230211    0.271241
     16          9           0       -2.007989   -1.372560    0.968574
     17          6           0       -1.649664   -0.387166   -1.133335
     18          9           0       -1.988114    0.733648   -1.832693
     19          6           0       -0.117121   -0.566177   -1.099521
     20          7           0        0.579362    0.466692   -1.598416
     21          6           0        2.032795    0.451954   -1.602405
     22          6           0        2.627405    0.853389   -0.245620
     23          6           0        4.129987    0.760532   -0.249475
     24          6           0        4.924435    1.885738   -0.464770
     25          7           0        6.255889    1.870718   -0.513796
     26          6           0        6.861236    0.695238   -0.344381
     27          6           0        6.173473   -0.491638   -0.120513
     28          6           0        4.787703   -0.455407   -0.073683
     29          8           0        0.353761   -1.591643   -0.643071
     30          9           0       -2.201657   -1.458523   -1.724578
     31          8           0       -1.590212    0.830652    0.894927
     32          1           0       -4.263656   -4.004002    1.712237
     33          1           0        0.077303    1.274812   -1.931924
     34          1           0        2.355761   -0.558753   -1.861916
     35          1           0        2.377173    1.126397   -2.388996
     36          1           0        2.312337    1.872351   -0.000984
     37          1           0        2.210871    0.190562    0.517970
     38          1           0        4.451828    2.857945   -0.599004
     39          1           0        7.947793    0.701793   -0.386457
     40          1           0        6.715421   -1.420610    0.017041
     41          1           0        4.215758   -1.362019    0.104187
 ---------------------------------------------------------------------

 Alpha  occ. eigenvalues --  -24.82993 -24.82987 -24.82883 -24.82535 -24.82500
 Alpha  occ. eigenvalues --  -24.82426 -24.82370 -24.81980 -24.81756 -24.81400
 Alpha  occ. eigenvalues --  -19.32022 -19.30285 -19.24746 -19.21547 -14.45945
 Alpha  occ. eigenvalues --  -14.40505 -10.52391 -10.48224 -10.47931 -10.46780
 Alpha  occ. eigenvalues --  -10.46725 -10.43535 -10.42116 -10.39384 -10.31223
 Alpha  occ. eigenvalues --  -10.29635 -10.29602 -10.28133 -10.28021 -10.27401
 Alpha  occ. eigenvalues --  -10.27252  -1.40898  -1.38598  -1.37922  -1.37723
 Alpha  occ. eigenvalues --   -1.35272  -1.34087  -1.33093  -1.32018  -1.31536
 Alpha  occ. eigenvalues --   -1.31348  -1.22620  -1.22199  -1.14688  -1.13583
 Alpha  occ. eigenvalues --   -1.03368  -1.02755  -0.94833  -0.91229  -0.90539
 Alpha  occ. eigenvalues --   -0.86844  -0.86402  -0.83757  -0.81333  -0.77999
 Alpha  occ. eigenvalues --   -0.76977  -0.74294  -0.73822  -0.70912  -0.70818
 Alpha  occ. eigenvalues --   -0.70209  -0.69067  -0.69031  -0.68323  -0.67964
 Alpha  occ. eigenvalues --   -0.67342  -0.66944  -0.66594  -0.65549  -0.64382
 Alpha  occ. eigenvalues --   -0.63879  -0.63637  -0.61800  -0.59577  -0.58490
 Alpha  occ. eigenvalues --   -0.57605  -0.56880  -0.56665  -0.56394  -0.55869
 Alpha  occ. eigenvalues --   -0.55597  -0.55201  -0.54521  -0.54282  -0.53683
 Alpha  occ. eigenvalues --   -0.53583  -0.53460  -0.52819  -0.52665  -0.52098
 Alpha  occ. eigenvalues --   -0.51689  -0.51601  -0.51344  -0.51023  -0.50370
 Alpha  occ. eigenvalues --   -0.50269  -0.50170  -0.49890  -0.49241  -0.48727
 Alpha  occ. eigenvalues --   -0.47933  -0.47713  -0.47303  -0.46826  -0.46746
 Alpha  occ. eigenvalues --   -0.45153  -0.44723  -0.43357  -0.42848  -0.41859
 Alpha  occ. eigenvalues --   -0.41799  -0.41370  -0.37087  -0.34824  -0.34366
 Alpha  occ. eigenvalues --   -0.33830  -0.31885  -0.31036
 Alpha virt. eigenvalues --    0.02045   0.02309   0.02952   0.03873   0.06430
 Alpha virt. eigenvalues --    0.10835   0.11062   0.12419   0.13039   0.14301
 Alpha virt. eigenvalues --    0.14820   0.17117   0.17844   0.18745   0.19063

 Mulliken charges:
               1
     1  F   -0.239935
     2  C    0.747615
     3  F   -0.243041
     4  C    0.529075
     5  F   -0.249779
     6  F   -0.259298
     7  C    0.140727
     8  F   -0.279956
     9  C    0.608312
    10  F   -0.269502
    11  C    0.535093
    12  O   -0.465054
    13  O   -0.433451
    14  F   -0.272596
    15  C    0.490461
    16  F   -0.266722
    17  C    0.582884
    18  F   -0.295733
    19  C    0.544343
    20  N   -0.532031
    21  C   -0.048730
    22  C   -0.245130
    23  C    0.082450
    24  C    0.050020
    25  N   -0.438156
    26  C    0.081035
    27  C   -0.105443
    28  C   -0.091423
    29  O   -0.518922
    30  F   -0.258793
    31  O   -0.498817
    32  H    0.358095
    33  H    0.294578
    34  H    0.146976
    35  H    0.127975
    36  H    0.114862
    37  H    0.138239
    38  H    0.100815
    39  H    0.109521
    40  H    0.109374
    41  H    0.120062
 Sum of Mulliken charges =   0.00000

 Dipole moment (field-independent basis, Debye):
    X=              0.3053    Y=             -0.6955    Z=             -0.0213  Tot=              0.7598
 Quadrupole moment (field-independent basis, Debye-Ang):
   XX=           -179.8093   YY=           -162.0901   ZZ=           -169.3393
   XY=             -6.4121   XZ=             -5.6874   YZ=            -10.0268

 Normal termination of Gaussian 09 at Thu Feb  6 08:10:08 2025.
