 Gaussian 09, Revision D.01,
 Gaussian 09:  ES64L-G09RevD.01 24-Apr-2013

 ----------------------------------------------------------------------
 #p CAM-B3LYP/6-31G(d,p) SCRF=(PCM,Solvent=Generic,Read) NoSymm out=wfn
 ----------------------------------------------------------------------

 ------------------
 Title A891418171_0
 ------------------
 Symbolic Z-matrix:
 Charge =  0 Multiplicity = 1

                          Input orientation:
 ---------------------------------------------------------------------
 Center     Atomic      Atomic             Coordinates (Angstroms)
 Number     Number       Type             X           Y           Z
 ---------------------------------------------------------------------
      1          6           0        3.162896    0.785564    1.652452
      2          6           0        3.211664    0.575970    0.144869
      3          7           0        2.181435   -0.352971   -0.313242
      4          6           0        2.455325   -1.699980   -0.266289
      5          8           0        3.511064   -2.180497    0.138047
      6          7           0        1.445559   -2.519876   -0.652292
      7          6           0        0.168543   -2.110895   -0.863415
      8          8           0       -0.732587   -2.943714   -0.854795
      9          7           0       -0.015759   -0.765737   -1.031135
     10          6           0       -1.374533   -0.296925   -1.253580
     11          9           0       -1.980377   -1.147194   -2.132534
     12          9           0       -1.332199    0.873686   -1.945943
     13          6           0       -2.235897   -0.151885    0.030120
     14          9           0       -2.256094   -1.372258    0.669010
     15          8           0       -1.667891    0.700728    1.032628
     16          6           0       -1.985949    2.066251    0.901620
     17          9           0       -1.170578    2.779059    1.699030
     18          9           0       -3.253239    2.265515    1.299772
     19          9           0       -1.847812    2.483179   -0.361732
     20          6           0       -3.675680    0.135984   -0.416317
     21          9           0       -3.790303    1.286473   -1.112103
     22          9           0       -4.497618    0.241393    0.657908
     23          9           0       -4.187983   -0.846793   -1.189906
     24          6           0        0.914935    0.137853   -0.577462
     25          8           0        0.627381    1.316042   -0.367284
     26          1           0        3.315080   -0.157193    2.187809
     27          1           0        3.944972    1.484990    1.963371
     28          1           0        2.196075    1.193196    1.964998
     29          1           0        3.081935    1.538674   -0.362694
     30          1           0        4.197836    0.190036   -0.137718
     31          1           0        1.589798   -3.508675   -0.503191
 ---------------------------------------------------------------------

 SCF Done:  E(RCAM-B3LYP) =  -1709.81724371     A.U. after   13 cycles

 Alpha  occ. eigenvalues --  -24.83256 -24.83216 -24.83144 -24.83126 -24.83027
 Alpha  occ. eigenvalues --  -24.82908 -24.82618 -24.82511 -24.82471 -19.32897
 Alpha  occ. eigenvalues --  -19.23589 -19.22906 -19.22499 -14.52283 -14.49755
 Alpha  occ. eigenvalues --  -14.48953 -10.59287 -10.55212 -10.52872 -10.48929
 Alpha  occ. eigenvalues --  -10.45437 -10.44988 -10.43907 -10.31398 -10.25782
 Alpha  occ. eigenvalues --   -1.43012  -1.41565  -1.38922  -1.35194  -1.33497
 Alpha  occ. eigenvalues --   -1.33061  -1.32438  -1.31988  -1.31308  -1.22116
 Alpha  occ. eigenvalues --   -1.20248  -1.16925  -1.16482  -1.09032  -1.06580
 Alpha  occ. eigenvalues --   -1.04511  -0.92793  -0.86910  -0.84274  -0.82188
 Alpha  occ. eigenvalues --   -0.79864  -0.78110  -0.76265  -0.74147  -0.72976
 Alpha  occ. eigenvalues --   -0.72721  -0.71407  -0.70596  -0.69222  -0.68667
 Alpha  occ. eigenvalues --   -0.68129  -0.67212  -0.65661  -0.64213  -0.62782
 Alpha  occ. eigenvalues --   -0.61203  -0.59203  -0.57629  -0.57048  -0.56915
 Alpha  occ. eigenvalues --   -0.56171  -0.55661  -0.55509  -0.55285  -0.54588
 Alpha  occ. eigenvalues --   -0.54361  -0.53627  -0.53318  -0.53144  -0.52962
 Alpha  occ. eigenvalues --   -0.52401  -0.51954  -0.51521  -0.50886  -0.50800
 Alpha  occ. eigenvalues --   -0.50550  -0.50062  -0.49743  -0.49237  -0.48655
 Alpha  occ. eigenvalues --   -0.48190  -0.47768  -0.46353  -0.44945  -0.43438
 Alpha  occ. eigenvalues --   -0.42321  -0.39718  -0.39172  -0.37767  -0.36803
 Alpha  occ. eigenvalues --   -0.35726  -0.35204
 Alpha virt. eigenvalues --    0.01692   0.02420   0.05451   0.09216   0.12348
 Alpha virt. eigenvalues --    0.13240   0.14313   0.15802   0.18114   0.18259
 Alpha virt. eigenvalues --    0.19307   0.19861   0.20298   0.21608   0.22176

 Mulliken charges:
               1
     1  C   -0.330028
     2  C   -0.062492
     3  N   -0.550401
     4  C    0.782732
     5  O   -0.519084
     6  N   -0.585922
     7  C    0.783669
     8  O   -0.499997
     9  N   -0.619166
    10  C    0.767166
    11  F   -0.258875
    12  F   -0.251582
    13  C    0.441401
    14  F   -0.264938
    15  O   -0.510327
    16  C    1.012102
    17  F   -0.244735
    18  F   -0.248292
    19  F   -0.240432
    20  C    0.801435
    21  F   -0.247009
    22  F   -0.260004
    23  F   -0.244226
    24  C    0.834220
    25  O   -0.509776
    26  H    0.127791
    27  H    0.127728
    28  H    0.129055
    29  H    0.152159
    30  H    0.153843
    31  H    0.333986
 Sum of Mulliken charges =   0.00000

 Dipole moment (field-independent basis, Debye):
    X=              2.7998    Y=              0.4459    Z=             -0.0739  Tot=              2.8361
 Quadrupole moment (field-independent basis, Debye-Ang):
   XX=           -140.5442   YY=           -139.4254   ZZ=           -133.5976
   XY=              1.1996   XZ=             -3.1698   YZ=              1.0124

 Normal termination of Gaussian 09 at Sun Mar  3 18:04:39 2024.
