 Gaussian 09, Revision D.01,
 Gaussian 09:  ES64L-G09RevD.01 24-Apr-2013

 ----------------------------------------------------------------------
 #p CAM-B3LYP/6-31G(d,p) SCRF=(PCM,Solvent=Generic,Read) NoSymm out=wfn
 ----------------------------------------------------------------------

 ----------------
 Title A949742_p1
 ----------------
 Symbolic Z-matrix:
 Charge =  1 Multiplicity = 2

                          Input orientation:
 ---------------------------------------------------------------------
 Center     Atomic      Atomic             Coordinates (Angstroms)
 Number     Number       Type             X           Y           Z
 ---------------------------------------------------------------------
      1          8           0        1.979750    2.811621   -0.122019
      2          6           0        1.001539    2.335370    0.443922
      3          7           0       -0.199483    2.955191    0.322594
      4          6           0       -1.389790    2.339057    0.526154
      5          8           0       -2.406467    2.838142    0.058177
      6          7           0       -1.350267    1.143898    1.187203
      7          6           0       -2.607385    0.447611    1.446058
      8          9           0       -2.467788   -0.193545    2.653618
      9          9           0       -3.589712    1.358546    1.709792
     10          6           0       -3.128971   -0.595939    0.416094
     11          9           0       -4.257186   -1.165092    0.951317
     12          8           0       -2.180134   -1.657317    0.281635
     13          6           0       -2.518415   -2.608481   -0.690771
     14          9           0       -2.162018   -2.132401   -1.896673
     15          9           0       -1.825663   -3.736774   -0.453954
     16          9           0       -3.829697   -2.889207   -0.675417
     17          6           0       -3.502516    0.137376   -0.872769
     18          9           0       -4.363690    1.152923   -0.673646
     19          9           0       -4.092939   -0.688323   -1.768932
     20          9           0       -2.393388    0.628169   -1.478345
     21          6           0       -0.165247    0.465557    1.377252
     22          8           0       -0.142044   -0.723375    1.680002
     23          7           0        0.998973    1.168356    1.156878
     24          6           0        2.261642    0.451622    1.290399
     25          9           0        2.227967   -0.261630    2.451289
     26          9           0        3.259205    1.357368    1.504521
     27          6           0        2.629530   -0.466908    0.095451
     28          9           0        1.690508   -1.451420   -0.020849
     29          8           0        2.537874    0.279022   -1.123753
     30          6           0        3.090108   -0.389691   -2.227124
     31          9           0        4.428150   -0.304813   -2.175685
     32          9           0        2.658428    0.214703   -3.349075
     33          9           0        2.704135   -1.674161   -2.252782
     34          6           0        3.992003   -1.077329    0.454230
     35          9           0        4.970387   -0.144955    0.478320
     36          9           0        3.992175   -1.694973    1.655080
     37          9           0        4.369737   -2.013140   -0.450042
     38          1           0       -0.219308    3.784943   -0.256596
 ---------------------------------------------------------------------

 SCF Done:  E(UCAM-B3LYP) =  -2756.18282346     A.U. after   43 cycles

 Alpha  occ. eigenvalues --  -24.89364 -24.88587 -24.88258 -24.87977 -24.87538
 Alpha  occ. eigenvalues --  -24.87447 -24.86840 -24.86414 -24.86328 -24.86244
 Alpha  occ. eigenvalues --  -24.86174 -24.86033 -24.86029 -24.85996 -24.85790
 Alpha  occ. eigenvalues --  -24.85768 -24.85721 -24.85318 -19.41756 -19.38974
 Alpha  occ. eigenvalues --  -19.36992 -19.36429 -19.34364 -14.62937 -14.61996
 Alpha  occ. eigenvalues --  -14.61158 -10.62571 -10.62210 -10.59616 -10.59493
 Alpha  occ. eigenvalues --  -10.59099 -10.58411 -10.57839 -10.56674 -10.55644
 Alpha  occ. eigenvalues --  -10.53469 -10.53214  -1.46477  -1.46060  -1.45171
 Alpha  occ. eigenvalues --   -1.44990  -1.44537  -1.43791  -1.39617  -1.38889
 Alpha  occ. eigenvalues --   -1.37461  -1.37231  -1.36809  -1.36228  -1.36202
 Alpha  occ. eigenvalues --   -1.35930  -1.35881  -1.35252  -1.35147  -1.35022
 Alpha  occ. eigenvalues --   -1.34741  -1.31639  -1.28723  -1.24422  -1.24070
 Alpha  occ. eigenvalues --   -1.21539  -1.18440  -1.16467  -0.98903  -0.98001
 Alpha  occ. eigenvalues --   -0.92769  -0.92284  -0.90313  -0.86462  -0.85789
 Alpha  occ. eigenvalues --   -0.84761  -0.84671  -0.81794  -0.79934  -0.78412
 Alpha  occ. eigenvalues --   -0.76723  -0.76275  -0.75975  -0.75661  -0.74235
 Alpha  occ. eigenvalues --   -0.74024  -0.73204  -0.72856  -0.72458  -0.72317
 Alpha  occ. eigenvalues --   -0.71931  -0.71678  -0.71355  -0.70487  -0.70307
 Alpha  occ. eigenvalues --   -0.69922  -0.69764  -0.69275  -0.69145  -0.68664
 Alpha  occ. eigenvalues --   -0.66639  -0.64594  -0.64188  -0.63521  -0.62911
 Alpha  occ. eigenvalues --   -0.62618  -0.61828  -0.60681  -0.60501  -0.60412
 Alpha  occ. eigenvalues --   -0.60126  -0.59858  -0.59772  -0.59563  -0.59447
 Alpha  occ. eigenvalues --   -0.58831  -0.58605  -0.58292  -0.57878  -0.57588
 Alpha  occ. eigenvalues --   -0.57131  -0.56882  -0.56441  -0.56307  -0.56102
 Alpha  occ. eigenvalues --   -0.55708  -0.55659  -0.55162  -0.55043  -0.54948
 Alpha  occ. eigenvalues --   -0.54781  -0.54382  -0.54010  -0.53728  -0.53446
 Alpha  occ. eigenvalues --   -0.53183  -0.52967  -0.52789  -0.52616  -0.52116
 Alpha  occ. eigenvalues --   -0.52008  -0.51592  -0.51140  -0.50709  -0.49836
 Alpha  occ. eigenvalues --   -0.49009  -0.48549  -0.47882  -0.46902  -0.46722
 Alpha virt. eigenvalues --   -0.09996  -0.08234   0.00029   0.00210   0.01335
 Alpha virt. eigenvalues --    0.02718   0.04512   0.06808   0.07975   0.10253
 Alpha virt. eigenvalues --    0.10517   0.12915   0.13534   0.14278   0.15308

  Beta  occ. eigenvalues --  -24.89315 -24.88558 -24.88257 -24.87967 -24.87523
  Beta  occ. eigenvalues --  -24.87436 -24.86834 -24.86414 -24.86327 -24.86243
  Beta  occ. eigenvalues --  -24.86174 -24.86033 -24.86028 -24.85996 -24.85790
  Beta  occ. eigenvalues --  -24.85767 -24.85721 -24.85319 -19.40418 -19.37959
  Beta  occ. eigenvalues --  -19.36979 -19.36424 -19.34041 -14.62873 -14.61947
  Beta  occ. eigenvalues --  -14.61039 -10.62571 -10.62210 -10.59620 -10.59493
  Beta  occ. eigenvalues --  -10.59101 -10.58411 -10.57941 -10.56760 -10.55680
  Beta  occ. eigenvalues --  -10.53470 -10.53215  -1.46464  -1.46056  -1.45166
  Beta  occ. eigenvalues --   -1.44969  -1.44476  -1.43774  -1.39604  -1.38879
  Beta  occ. eigenvalues --   -1.37439  -1.37185  -1.36745  -1.36226  -1.36187
  Beta  occ. eigenvalues --   -1.35929  -1.35879  -1.35237  -1.35144  -1.34745
  Beta  occ. eigenvalues --   -1.33888  -1.29823  -1.27853  -1.24392  -1.24056
  Beta  occ. eigenvalues --   -1.20366  -1.17905  -1.15976  -0.98881  -0.97930
  Beta  occ. eigenvalues --   -0.92299  -0.91917  -0.89925  -0.86297  -0.85725
  Beta  occ. eigenvalues --   -0.84565  -0.83803  -0.81770  -0.79878  -0.78368
  Beta  occ. eigenvalues --   -0.76671  -0.76262  -0.75942  -0.75605  -0.74161
  Beta  occ. eigenvalues --   -0.73985  -0.73122  -0.72794  -0.72428  -0.72277
  Beta  occ. eigenvalues --   -0.71914  -0.71567  -0.71330  -0.70414  -0.70254
  Beta  occ. eigenvalues --   -0.69846  -0.69609  -0.69208  -0.69104  -0.67469
  Beta  occ. eigenvalues --   -0.65632  -0.64153  -0.63838  -0.63424  -0.62647
  Beta  occ. eigenvalues --   -0.62176  -0.61433  -0.60503  -0.60357  -0.60274
  Beta  occ. eigenvalues --   -0.60044  -0.59824  -0.59602  -0.59434  -0.59259
  Beta  occ. eigenvalues --   -0.58743  -0.58541  -0.58277  -0.57790  -0.57465
  Beta  occ. eigenvalues --   -0.56990  -0.56792  -0.56280  -0.55913  -0.55831
  Beta  occ. eigenvalues --   -0.55648  -0.55344  -0.54977  -0.54886  -0.54765
  Beta  occ. eigenvalues --   -0.54395  -0.54024  -0.53715  -0.53416  -0.53047
  Beta  occ. eigenvalues --   -0.52865  -0.52739  -0.52321  -0.52026  -0.51586
  Beta  occ. eigenvalues --   -0.50914  -0.50417  -0.49543  -0.48806  -0.48534
  Beta  occ. eigenvalues --   -0.47704  -0.46923  -0.44967  -0.44005
  Beta virt. eigenvalues --   -0.32065  -0.09695  -0.08026   0.00026   0.00243
  Beta virt. eigenvalues --    0.01362   0.02772   0.04573   0.06878   0.08027
  Beta virt. eigenvalues --    0.10289   0.10624   0.13017   0.13550   0.14324

 Mulliken charges and spin densities:
               1          2
     1  O   -0.306306   0.384384
     2  C    0.898962  -0.051293
     3  N   -0.587148   0.049865
     4  C    0.906618  -0.058063
     5  O   -0.270621   0.503819
     6  N   -0.625030   0.027845
     7  C    0.736545  -0.003247
     8  F   -0.241341   0.002898
     9  F   -0.229577   0.011547
    10  C    0.453400   0.000337
    11  F   -0.249692   0.000001
    12  O   -0.504805   0.001049
    13  C    1.004126   0.000105
    14  F   -0.245862   0.000020
    15  F   -0.230032   0.000002
    16  F   -0.236391   0.000146
    17  C    0.812004  -0.000774
    18  F   -0.229042   0.003322
    19  F   -0.240409   0.000250
    20  F   -0.253820   0.000518
    21  C    0.901510  -0.022731
    22  O   -0.375761   0.119653
    23  N   -0.631075   0.021985
    24  C    0.755523  -0.003035
    25  F   -0.235957   0.002685
    26  F   -0.236321   0.006939
    27  C    0.442245   0.000076
    28  F   -0.247936   0.001495
    29  O   -0.520431   0.003270
    30  C    1.005062  -0.000007
    31  F   -0.235521  -0.000001
    32  F   -0.234046   0.000002
    33  F   -0.236729   0.000291
    34  C    0.825157  -0.000049
    35  F   -0.240793   0.000013
    36  F   -0.237460  -0.000004
    37  F   -0.250429  -0.000013
    38  H    0.391381  -0.003301
 Sum of Mulliken charges =   1.00000   1.00000

 Dipole moment (field-independent basis, Debye):
    X=             -1.6661    Y=             10.2087    Z=              1.8806  Tot=             10.5134
 Quadrupole moment (field-independent basis, Debye-Ang):
   XX=           -181.2714   YY=           -160.6910   ZZ=           -186.1121
   XY=             -3.2681   XZ=             -0.9188   YZ=              6.2678

 Normal termination of Gaussian 09 at Sun Mar  3 17:23:34 2024.
