 Gaussian 09, Revision D.01,
 Gaussian 09:  ES64L-G09RevD.01 24-Apr-2013

 ----------------------------------------------------------------------
 #p CAM-B3LYP/6-31G(d,p) SCRF=(PCM,Solvent=Generic,Read) NoSymm out=wfn
 ----------------------------------------------------------------------

 ---------------
 Title A949742_0
 ---------------
 Symbolic Z-matrix:
 Charge =  0 Multiplicity = 1

                          Input orientation:
 ---------------------------------------------------------------------
 Center     Atomic      Atomic             Coordinates (Angstroms)
 Number     Number       Type             X           Y           Z
 ---------------------------------------------------------------------
      1          8           0        1.979750    2.811621   -0.122019
      2          6           0        1.001539    2.335370    0.443922
      3          7           0       -0.199483    2.955191    0.322594
      4          6           0       -1.389790    2.339057    0.526154
      5          8           0       -2.406467    2.838142    0.058177
      6          7           0       -1.350267    1.143898    1.187203
      7          6           0       -2.607385    0.447611    1.446058
      8          9           0       -2.467788   -0.193545    2.653618
      9          9           0       -3.589712    1.358546    1.709792
     10          6           0       -3.128971   -0.595939    0.416094
     11          9           0       -4.257186   -1.165092    0.951317
     12          8           0       -2.180134   -1.657317    0.281635
     13          6           0       -2.518415   -2.608481   -0.690771
     14          9           0       -2.162018   -2.132401   -1.896673
     15          9           0       -1.825663   -3.736774   -0.453954
     16          9           0       -3.829697   -2.889207   -0.675417
     17          6           0       -3.502516    0.137376   -0.872769
     18          9           0       -4.363690    1.152923   -0.673646
     19          9           0       -4.092939   -0.688323   -1.768932
     20          9           0       -2.393388    0.628169   -1.478345
     21          6           0       -0.165247    0.465557    1.377252
     22          8           0       -0.142044   -0.723375    1.680002
     23          7           0        0.998973    1.168356    1.156878
     24          6           0        2.261642    0.451622    1.290399
     25          9           0        2.227967   -0.261630    2.451289
     26          9           0        3.259205    1.357368    1.504521
     27          6           0        2.629530   -0.466908    0.095451
     28          9           0        1.690508   -1.451420   -0.020849
     29          8           0        2.537874    0.279022   -1.123753
     30          6           0        3.090108   -0.389691   -2.227124
     31          9           0        4.428150   -0.304813   -2.175685
     32          9           0        2.658428    0.214703   -3.349075
     33          9           0        2.704135   -1.674161   -2.252782
     34          6           0        3.992003   -1.077329    0.454230
     35          9           0        4.970387   -0.144955    0.478320
     36          9           0        3.992175   -1.694973    1.655080
     37          9           0        4.369737   -2.013140   -0.450042
     38          1           0       -0.219308    3.784943   -0.256596
 ---------------------------------------------------------------------

 SCF Done:  E(RCAM-B3LYP) =  -2756.52534885     A.U. after   13 cycles

 Alpha  occ. eigenvalues --  -24.84018 -24.83855 -24.83727 -24.83706 -24.83649
 Alpha  occ. eigenvalues --  -24.83545 -24.83518 -24.83480 -24.83454 -24.83363
 Alpha  occ. eigenvalues --  -24.83258 -24.83247 -24.83239 -24.83107 -24.83101
 Alpha  occ. eigenvalues --  -24.82975 -24.82926 -24.82412 -19.33296 -19.32958
 Alpha  occ. eigenvalues --  -19.25086 -19.23928 -19.23846 -14.53819 -14.53509
 Alpha  occ. eigenvalues --  -14.50217 -10.59813 -10.59578 -10.55728 -10.55630
 Alpha  occ. eigenvalues --  -10.53980 -10.53831 -10.49343 -10.49310 -10.47582
 Alpha  occ. eigenvalues --  -10.46024 -10.45973  -1.43472  -1.43303  -1.42032
 Alpha  occ. eigenvalues --   -1.41960  -1.39468  -1.39185  -1.35951  -1.35414
 Alpha  occ. eigenvalues --   -1.33792  -1.33528  -1.33490  -1.33368  -1.33245
 Alpha  occ. eigenvalues --   -1.33025  -1.32473  -1.32344  -1.31955  -1.31529
 Alpha  occ. eigenvalues --   -1.24049  -1.20872  -1.20696  -1.18587  -1.18169
 Alpha  occ. eigenvalues --   -1.10630  -1.09190  -1.06359  -0.94134  -0.93581
 Alpha  occ. eigenvalues --   -0.86176  -0.84584  -0.82528  -0.82310  -0.81446
 Alpha  occ. eigenvalues --   -0.79277  -0.77720  -0.76155  -0.74992  -0.74118
 Alpha  occ. eigenvalues --   -0.73077  -0.72997  -0.72006  -0.71096  -0.70703
 Alpha  occ. eigenvalues --   -0.70368  -0.69684  -0.69595  -0.68768  -0.68663
 Alpha  occ. eigenvalues --   -0.67849  -0.67424  -0.66896  -0.66544  -0.65791
 Alpha  occ. eigenvalues --   -0.65464  -0.64607  -0.63105  -0.62495  -0.60193
 Alpha  occ. eigenvalues --   -0.59852  -0.58029  -0.57871  -0.57365  -0.57282
 Alpha  occ. eigenvalues --   -0.56830  -0.56580  -0.56472  -0.56239  -0.56044
 Alpha  occ. eigenvalues --   -0.55888  -0.55735  -0.55167  -0.55154  -0.54940
 Alpha  occ. eigenvalues --   -0.54807  -0.54160  -0.53870  -0.53754  -0.53399
 Alpha  occ. eigenvalues --   -0.53237  -0.53024  -0.52856  -0.52480  -0.52351
 Alpha  occ. eigenvalues --   -0.51937  -0.51617  -0.51340  -0.51132  -0.50994
 Alpha  occ. eigenvalues --   -0.50684  -0.50603  -0.50426  -0.50220  -0.50092
 Alpha  occ. eigenvalues --   -0.49661  -0.49358  -0.49129  -0.49036  -0.48951
 Alpha  occ. eigenvalues --   -0.46310  -0.45990  -0.44904  -0.44698  -0.41140
 Alpha  occ. eigenvalues --   -0.40833  -0.39054  -0.38849  -0.37714  -0.36319
 Alpha virt. eigenvalues --    0.00230   0.00740   0.05249   0.06059   0.06845
 Alpha virt. eigenvalues --    0.08598   0.10521   0.12608   0.12994   0.14977
 Alpha virt. eigenvalues --    0.16865   0.17554   0.18653   0.19710   0.20276

 Mulliken charges:
               1
     1  O   -0.489273
     2  C    0.796173
     3  N   -0.588900
     4  C    0.789365
     5  O   -0.493991
     6  N   -0.627968
     7  C    0.748642
     8  F   -0.263245
     9  F   -0.246434
    10  C    0.434988
    11  F   -0.266425
    12  O   -0.499878
    13  C    0.996368
    14  F   -0.248914
    15  F   -0.236455
    16  F   -0.242421
    17  C    0.816274
    18  F   -0.233240
    19  F   -0.253374
    20  F   -0.252375
    21  C    0.846122
    22  O   -0.467594
    23  N   -0.634515
    24  C    0.764547
    25  F   -0.254872
    26  F   -0.252135
    27  C    0.436131
    28  F   -0.254947
    29  O   -0.506746
    30  C    0.996898
    31  F   -0.241989
    32  F   -0.238726
    33  F   -0.242523
    34  C    0.814869
    35  F   -0.245413
    36  F   -0.243030
    37  F   -0.258441
    38  H    0.343448
 Sum of Mulliken charges =   0.00000

 Dipole moment (field-independent basis, Debye):
    X=             -0.0041    Y=              1.6840    Z=             -0.1554  Tot=              1.6912
 Quadrupole moment (field-independent basis, Debye-Ang):
   XX=           -207.7766   YY=           -192.5497   ZZ=           -194.0474
   XY=              0.0945   XZ=              0.3317   YZ=              5.5633

 Normal termination of Gaussian 09 at Sun Mar  3 17:21:28 2024.
