 Gaussian 09, Revision D.01,
 Gaussian 09:  ES64L-G09RevD.01 24-Apr-2013

 ----------------------------------------------------------------------
 #p CAM-B3LYP/6-31G(d,p) SCRF=(PCM,Solvent=Generic,Read) NoSymm out=wfn
 ----------------------------------------------------------------------

 -------------------
 Title A1576805752_0
 -------------------
 Symbolic Z-matrix:
 Charge =  0 Multiplicity = 1

                          Input orientation:
 ---------------------------------------------------------------------
 Center     Atomic      Atomic             Coordinates (Angstroms)
 Number     Number       Type             X           Y           Z
 ---------------------------------------------------------------------
      1          6           0       -0.407194    3.539472   -1.458820
      2          6           0       -1.309839    2.816928   -0.784391
      3          7           0       -1.220029    1.474711   -0.398643
      4          6           0       -2.270857    0.947512    0.354225
      5          8           0       -3.228976    1.623740    0.739159
      6          7           0       -2.198244   -0.408928    0.621477
      7          6           0       -3.367570   -1.067157    1.202429
      8          6           0       -4.360321   -1.498497    0.132006
      9          6           0       -1.106624   -1.185091    0.281970
     10          8           0       -1.163559   -2.413019    0.308924
     11          7           0        0.007535   -0.490446   -0.105181
     12          6           0        1.207011   -1.273752   -0.372988
     13          9           0        1.072331   -1.922327   -1.557243
     14          9           0        1.286835   -2.249050    0.585762
     15          6           0        2.557885   -0.506946   -0.300242
     16          9           0        2.689647    0.368314   -1.332543
     17          8           0        2.545090    0.289692    0.898366
     18          6           0        3.800507    0.849187    1.191269
     19          9           0        3.622422    1.830973    2.094627
     20          9           0        4.588086   -0.093586    1.732103
     21          9           0        4.376118    1.365629    0.096445
     22          6           0        3.650102   -1.581332   -0.415967
     23          9           0        3.687504   -2.390341    0.666551
     24          9           0        4.880583   -1.019283   -0.515063
     25          9           0        3.503275   -2.364106   -1.506221
     26          6           0       -0.211502    0.631837   -0.860515
     27          8           0        0.408528    0.817252   -1.905829
     28          1           0       -0.607727    4.583795   -1.682338
     29          1           0        0.541682    3.151406   -1.811845
     30          1           0       -2.217527    3.330616   -0.464806
     31          1           0       -3.861511   -0.386111    1.904499
     32          1           0       -3.047408   -1.943009    1.778283
     33          1           0       -5.223483   -1.990432    0.590710
     34          1           0       -3.901305   -2.199362   -0.572783
     35          1           0       -4.721465   -0.638290   -0.441024
 ---------------------------------------------------------------------

 SCF Done:  E(RCAM-B3LYP) =  -1787.14921238     A.U. after   14 cycles

 Alpha  occ. eigenvalues --  -24.83889 -24.83639 -24.83576 -24.83487 -24.82887
 Alpha  occ. eigenvalues --  -24.82800 -24.82706 -24.82668 -24.82563 -19.33277
 Alpha  occ. eigenvalues --  -19.24876 -19.23446 -19.23301 -14.51673 -14.50978
 Alpha  occ. eigenvalues --  -14.49535 -10.59738 -10.55458 -10.52987 -10.49110
 Alpha  occ. eigenvalues --  -10.45883 -10.44971 -10.44556 -10.31949 -10.31246
 Alpha  occ. eigenvalues --  -10.26753 -10.25774  -1.43395  -1.41775  -1.38739
 Alpha  occ. eigenvalues --   -1.35701  -1.33742  -1.33427  -1.32834  -1.32177
 Alpha  occ. eigenvalues --   -1.31621  -1.22286  -1.20605  -1.17290  -1.16675
 Alpha  occ. eigenvalues --   -1.09257  -1.07026  -1.05461  -0.93485  -0.88153
 Alpha  occ. eigenvalues --   -0.85706  -0.84224  -0.81910  -0.79450  -0.77695
 Alpha  occ. eigenvalues --   -0.76103  -0.74389  -0.73531  -0.72926  -0.70736
 Alpha  occ. eigenvalues --   -0.70609  -0.69641  -0.68708  -0.68490  -0.67352
 Alpha  occ. eigenvalues --   -0.66920  -0.65709  -0.65055  -0.61576  -0.60193
 Alpha  occ. eigenvalues --   -0.59373  -0.57653  -0.57335  -0.57043  -0.56529
 Alpha  occ. eigenvalues --   -0.56125  -0.55851  -0.55613  -0.54770  -0.54570
 Alpha  occ. eigenvalues --   -0.53943  -0.53536  -0.53342  -0.53196  -0.52452
 Alpha  occ. eigenvalues --   -0.52246  -0.51980  -0.51849  -0.50859  -0.50540
 Alpha  occ. eigenvalues --   -0.50407  -0.50247  -0.50226  -0.49841  -0.48959
 Alpha  occ. eigenvalues --   -0.48712  -0.46731  -0.46157  -0.45690  -0.44963
 Alpha  occ. eigenvalues --   -0.44265  -0.42753  -0.41541  -0.40244  -0.38680
 Alpha  occ. eigenvalues --   -0.37672  -0.35983  -0.35446  -0.31177
 Alpha virt. eigenvalues --   -0.00394   0.01011   0.05961   0.07033   0.08631
 Alpha virt. eigenvalues --    0.11821   0.15360   0.16043   0.16572   0.17592
 Alpha virt. eigenvalues --    0.17985   0.18795   0.19766   0.20151   0.20338

 Mulliken charges:
               1
     1  C   -0.271428
     2  C    0.115656
     3  N   -0.580877
     4  C    0.835383
     5  O   -0.516356
     6  N   -0.579430
     7  C   -0.065096
     8  C   -0.327769
     9  C    0.815407
    10  O   -0.495557
    11  N   -0.613056
    12  C    0.790336
    13  F   -0.251761
    14  F   -0.269915
    15  C    0.405704
    16  F   -0.248517
    17  O   -0.515329
    18  C    0.994575
    19  F   -0.240008
    20  F   -0.242577
    21  F   -0.239485
    22  C    0.815430
    23  F   -0.246144
    24  F   -0.260347
    25  F   -0.242457
    26  C    0.776867
    27  O   -0.462077
    28  H    0.128110
    29  H    0.136323
    30  H    0.164204
    31  H    0.155722
    32  H    0.152360
    33  H    0.127298
    34  H    0.129250
    35  H    0.125560
 Sum of Mulliken charges =   0.00000

 Dipole moment (field-independent basis, Debye):
    X=             -1.4637    Y=              1.5611    Z=              1.1664  Tot=              2.4372
 Quadrupole moment (field-independent basis, Debye-Ang):
   XX=           -144.5932   YY=           -150.0198   ZZ=           -149.3216
   XY=              6.3375   XZ=              1.0519   YZ=             -3.0582

 Normal termination of Gaussian 09 at Sun Mar  3 17:34:38 2024.
