 Gaussian 09, Revision D.01,
 Gaussian 09:  ES64L-G09RevD.01 24-Apr-2013

 ----------------------------------------------------------------------
 #p CAM-B3LYP/6-31G(d,p) SCRF=(PCM,Solvent=Generic,Read) NoSymm out=wfn
 ----------------------------------------------------------------------

 --------------------
 Title A1576805752_p1
 --------------------
 Symbolic Z-matrix:
 Charge =  1 Multiplicity = 2

                          Input orientation:
 ---------------------------------------------------------------------
 Center     Atomic      Atomic             Coordinates (Angstroms)
 Number     Number       Type             X           Y           Z
 ---------------------------------------------------------------------
      1          6           0       -0.407194    3.539472   -1.458820
      2          6           0       -1.309839    2.816928   -0.784391
      3          7           0       -1.220029    1.474711   -0.398643
      4          6           0       -2.270857    0.947512    0.354225
      5          8           0       -3.228976    1.623740    0.739159
      6          7           0       -2.198244   -0.408928    0.621477
      7          6           0       -3.367570   -1.067157    1.202429
      8          6           0       -4.360321   -1.498497    0.132006
      9          6           0       -1.106624   -1.185091    0.281970
     10          8           0       -1.163559   -2.413019    0.308924
     11          7           0        0.007535   -0.490446   -0.105181
     12          6           0        1.207011   -1.273752   -0.372988
     13          9           0        1.072331   -1.922327   -1.557243
     14          9           0        1.286835   -2.249050    0.585762
     15          6           0        2.557885   -0.506946   -0.300242
     16          9           0        2.689647    0.368314   -1.332543
     17          8           0        2.545090    0.289692    0.898366
     18          6           0        3.800507    0.849187    1.191269
     19          9           0        3.622422    1.830973    2.094627
     20          9           0        4.588086   -0.093586    1.732103
     21          9           0        4.376118    1.365629    0.096445
     22          6           0        3.650102   -1.581332   -0.415967
     23          9           0        3.687504   -2.390341    0.666551
     24          9           0        4.880583   -1.019283   -0.515063
     25          9           0        3.503275   -2.364106   -1.506221
     26          6           0       -0.211502    0.631837   -0.860515
     27          8           0        0.408528    0.817252   -1.905829
     28          1           0       -0.607727    4.583795   -1.682338
     29          1           0        0.541682    3.151406   -1.811845
     30          1           0       -2.217527    3.330616   -0.464806
     31          1           0       -3.861511   -0.386111    1.904499
     32          1           0       -3.047408   -1.943009    1.778283
     33          1           0       -5.223483   -1.990432    0.590710
     34          1           0       -3.901305   -2.199362   -0.572783
     35          1           0       -4.721465   -0.638290   -0.441024
 ---------------------------------------------------------------------

 SCF Done:  E(UCAM-B3LYP) =  -1786.87090456     A.U. after   21 cycles

 Alpha  occ. eigenvalues --  -24.85977 -24.85972 -24.85801 -24.85695 -24.85574
 Alpha  occ. eigenvalues --  -24.85449 -24.85399 -24.84770 -24.84674 -19.35853
 Alpha  occ. eigenvalues --  -19.32891 -19.30409 -19.28199 -14.63659 -14.57131
 Alpha  occ. eigenvalues --  -14.55187 -10.61886 -10.57555 -10.56575 -10.53432
 Alpha  occ. eigenvalues --  -10.51946 -10.51512 -10.49690 -10.46889 -10.42411
 Alpha  occ. eigenvalues --  -10.34664 -10.28483  -1.45446  -1.43794  -1.41832
 Alpha  occ. eigenvalues --   -1.38608  -1.35773  -1.35480  -1.35259  -1.34277
 Alpha  occ. eigenvalues --   -1.33960  -1.29762  -1.24153  -1.23196  -1.22664
 Alpha  occ. eigenvalues --   -1.17307  -1.14142  -1.11193  -1.00948  -0.96377
 Alpha  occ. eigenvalues --   -0.90825  -0.90026  -0.86733  -0.84723  -0.83500
 Alpha  occ. eigenvalues --   -0.81242  -0.80045  -0.77534  -0.75734  -0.75124
 Alpha  occ. eigenvalues --   -0.73581  -0.72963  -0.72564  -0.71586  -0.70839
 Alpha  occ. eigenvalues --   -0.70037  -0.69539  -0.69167  -0.68168  -0.67627
 Alpha  occ. eigenvalues --   -0.64512  -0.62875  -0.62693  -0.61946  -0.61267
 Alpha  occ. eigenvalues --   -0.59816  -0.59547  -0.59197  -0.58933  -0.58118
 Alpha  occ. eigenvalues --   -0.58078  -0.57881  -0.57619  -0.57132  -0.56903
 Alpha  occ. eigenvalues --   -0.56385  -0.55839  -0.54962  -0.54808  -0.54394
 Alpha  occ. eigenvalues --   -0.54034  -0.53474  -0.52881  -0.52396  -0.52285
 Alpha  occ. eigenvalues --   -0.52086  -0.51323  -0.50977  -0.50412  -0.48582
 Alpha  occ. eigenvalues --   -0.47916  -0.47175  -0.46477  -0.45603  -0.45159
 Alpha  occ. eigenvalues --   -0.44524  -0.43581  -0.41197  -0.40302
 Alpha virt. eigenvalues --   -0.09327  -0.06703  -0.02103   0.03119   0.04363
 Alpha virt. eigenvalues --    0.06164   0.07892   0.09719   0.11588   0.12556
 Alpha virt. eigenvalues --    0.14122   0.14506   0.15107   0.16009   0.16635

  Beta  occ. eigenvalues --  -24.85977 -24.85971 -24.85802 -24.85695 -24.85571
  Beta  occ. eigenvalues --  -24.85449 -24.85398 -24.84770 -24.84674 -19.35853
  Beta  occ. eigenvalues --  -19.32722 -19.30294 -19.28164 -14.63058 -14.57128
  Beta  occ. eigenvalues --  -14.55141 -10.61886 -10.57555 -10.56575 -10.53503
  Beta  occ. eigenvalues --  -10.51946 -10.51579 -10.49703 -10.46684 -10.41600
  Beta  occ. eigenvalues --  -10.34664 -10.28477  -1.45446  -1.43794  -1.41831
  Beta  occ. eigenvalues --   -1.38603  -1.35773  -1.35480  -1.35259  -1.34277
  Beta  occ. eigenvalues --   -1.33960  -1.29339  -1.23919  -1.23190  -1.22496
  Beta  occ. eigenvalues --   -1.16555  -1.13965  -1.11069  -0.98792  -0.96277
  Beta  occ. eigenvalues --   -0.90661  -0.89747  -0.86327  -0.84589  -0.83364
  Beta  occ. eigenvalues --   -0.81008  -0.79978  -0.77473  -0.75581  -0.74989
  Beta  occ. eigenvalues --   -0.73562  -0.72931  -0.72451  -0.71432  -0.70729
  Beta  occ. eigenvalues --   -0.69873  -0.69265  -0.68788  -0.68032  -0.66949
  Beta  occ. eigenvalues --   -0.63893  -0.62684  -0.62657  -0.61713  -0.60453
  Beta  occ. eigenvalues --   -0.59601  -0.59494  -0.59118  -0.58815  -0.58062
  Beta  occ. eigenvalues --   -0.57820  -0.57726  -0.57296  -0.57059  -0.56597
  Beta  occ. eigenvalues --   -0.56342  -0.55811  -0.54949  -0.54761  -0.54345
  Beta  occ. eigenvalues --   -0.54025  -0.53456  -0.52764  -0.52371  -0.52123
  Beta  occ. eigenvalues --   -0.51354  -0.50990  -0.50433  -0.49094  -0.48561
  Beta  occ. eigenvalues --   -0.47858  -0.47110  -0.46037  -0.45501  -0.44444
  Beta  occ. eigenvalues --   -0.43354  -0.41034  -0.39966
  Beta virt. eigenvalues --   -0.24506  -0.06987  -0.05426  -0.00218   0.03563
  Beta virt. eigenvalues --    0.04681   0.06353   0.08216   0.10239   0.11679
  Beta virt. eigenvalues --    0.12998   0.14302   0.14536   0.15209   0.16188

 Mulliken charges and spin densities:
               1          2
     1  C   -0.112703   0.572497
     2  C    0.242138   0.160238
     3  N   -0.540020   0.251632
     4  C    0.871078  -0.036158
     5  O   -0.457156   0.047238
     6  N   -0.576964   0.021482
     7  C   -0.081153  -0.001065
     8  C   -0.330836   0.002704
     9  C    0.839109  -0.006683
    10  O   -0.453338   0.013482
    11  N   -0.615021   0.001813
    12  C    0.795859  -0.000551
    13  F   -0.241805   0.000249
    14  F   -0.258812  -0.000091
    15  C    0.402460   0.000276
    16  F   -0.249909   0.000463
    17  O   -0.517846  -0.000019
    18  C    0.996495  -0.000003
    19  F   -0.238291   0.000000
    20  F   -0.237644   0.000002
    21  F   -0.237800   0.000004
    22  C    0.822278  -0.000017
    23  F   -0.242155   0.000012
    24  F   -0.255848   0.000006
    25  F   -0.239226   0.000009
    26  C    0.809761  -0.040501
    27  O   -0.405999   0.066056
    28  H    0.245676  -0.025458
    29  H    0.240424  -0.022578
    30  H    0.265287  -0.006403
    31  H    0.173417   0.000568
    32  H    0.174934   0.000477
    33  H    0.146600   0.000371
    34  H    0.138262  -0.000004
    35  H    0.128746  -0.000045
 Sum of Mulliken charges =   1.00000   1.00000

 Dipole moment (field-independent basis, Debye):
    X=             -5.9218    Y=             11.6294    Z=             -2.5911  Tot=             13.3050
 Quadrupole moment (field-independent basis, Debye-Ang):
   XX=           -127.6680   YY=           -107.2144   ZZ=           -138.5964
   XY=             -1.7757   XZ=              1.6258   YZ=            -16.4619

 Normal termination of Gaussian 09 at Sun Mar  3 17:35:59 2024.
