 Gaussian 09, Revision D.01,
 Gaussian 09:  ES64L-G09RevD.01 24-Apr-2013

 ----------------------------------------------------------------------
 #p CAM-B3LYP/6-31G(d,p) SCRF=(PCM,Solvent=Generic,Read) NoSymm out=wfn
 ----------------------------------------------------------------------

 ---------------
 Title TAIC2_neu
 ---------------
 Symbolic Z-matrix:
 Charge =  0 Multiplicity = 1

                          Input orientation:
 ---------------------------------------------------------------------
 Center     Atomic      Atomic             Coordinates (Angstroms)
 Number     Number       Type             X           Y           Z
 ---------------------------------------------------------------------
      1          8           0        1.007703    1.962382    2.050601
      2          6           0        0.304129    0.951774    2.011274
      3          7           0        0.854752   -0.311236    2.054907
      4          6           0        2.309187   -0.425851    2.144097
      5          6           0        2.962549   -0.396795    0.758518
      6          6           0        4.486115   -0.511952    0.856892
      7          6           0        5.141018   -0.491536   -0.521757
      8          9           0        4.784806    0.657592   -1.162154
      9          9           0        4.632238   -1.513026   -1.266382
     10          6           0        6.675100   -0.599610   -0.442522
     11          9           0        7.173035    0.420919    0.300432
     12          9           0        7.021026   -1.753197    0.185736
     13          8           0        7.270475   -0.601756   -1.717354
     14          6           0        8.634890   -0.331580   -1.595622
     15          9           0        8.831362    0.984520   -1.390345
     16          9           0        9.206453   -1.038065   -0.603839
     17          9           0        9.238811   -0.668416   -2.754877
     18          6           0        0.121503   -1.465317    1.884270
     19          8           0        0.660262   -2.570317    1.787614
     20          7           0       -1.246031   -1.315119    1.805861
     21          6           0       -2.061881   -2.514492    1.628925
     22          6           0       -2.225210   -2.872255    0.147982
     23          6           0       -3.086190   -4.125826   -0.032158
     24          6           0       -3.246948   -4.488997   -1.508008
     25          9           0       -3.774881   -3.427188   -2.173762
     26          9           0       -2.007391   -4.682941   -2.041361
     27          6           0       -4.115295   -5.754275   -1.721091
     28          9           0       -4.178437   -6.104413   -3.030436
     29          9           0       -3.492578   -6.803011   -1.102974
     30          8           0       -5.423214   -5.762076   -1.201627
     31          6           0       -6.195131   -4.736924   -1.759975
     32          9           0       -5.962310   -3.596352   -1.084012
     33          9           0       -5.944834   -4.550890   -3.065006
     34          9           0       -7.496721   -5.053416   -1.610857
     35          6           0       -1.872934   -0.088746    1.754490
     36          8           0       -3.088988    0.008744    1.573158
     37          7           0       -1.066620    1.023127    1.892346
     38          6           0       -1.706669    2.340865    1.857284
     39          6           0       -2.007344    2.822436    0.428986
     40          6           0       -0.806751    3.371885   -0.348989
     41          6           0       -0.265853    4.736704    0.091218
     42          9           0        0.840847    4.988868   -0.675054
     43          9           0        0.182866    4.661172    1.371672
     44          6           0       -1.248818    5.917068   -0.050808
     45          9           0       -2.288814    5.760173    0.808398
     46          9           0       -0.637576    7.081025    0.278344
     47          8           0       -1.784578    6.003133   -1.350484
     48          6           0       -2.340825    7.272383   -1.540233
     49          9           0       -3.121724    7.223872   -2.640735
     50          9           0       -3.106210    7.650008   -0.500903
     51          9           0       -1.371908    8.180618   -1.756784
     52          1           0        2.701177    0.393717    2.758274
     53          1           0        2.568528   -1.358843    2.658631
     54          1           0        2.567419   -1.217406    0.147392
     55          1           0        2.694296    0.533508    0.242978
     56          1           0        4.868918    0.320935    1.458278
     57          1           0        4.741636   -1.445982    1.370975
     58          1           0       -1.598792   -3.351289    2.165434
     59          1           0       -3.046528   -2.353389    2.083804
     60          1           0       -2.681295   -2.030409   -0.387040
     61          1           0       -1.238681   -3.031882   -0.303797
     62          1           0       -4.066622   -3.951595    0.423635
     63          1           0       -2.614847   -4.960980    0.499161
     64          1           0       -1.105227    3.070687    2.406150
     65          1           0       -2.657795    2.264141    2.399099
     66          1           0       -2.795912    3.579964    0.469910
     67          1           0       -2.429134    1.990960   -0.149674
     68          1           0       -1.085019    3.440384   -1.408431
     69          1           0        0.011418    2.643786   -0.319021
 ---------------------------------------------------------------------

 SCF Done:  E(RCAM-B3LYP) =  -3522.40115725     A.U. after   13 cycles

 Alpha  occ. eigenvalues --  -24.83688 -24.83387 -24.83203 -24.83189 -24.83139
 Alpha  occ. eigenvalues --  -24.82841 -24.82781 -24.82687 -24.82629 -24.82564
 Alpha  occ. eigenvalues --  -24.82455 -24.82185 -24.81925 -24.81860 -24.81472
 Alpha  occ. eigenvalues --  -24.80705 -24.80531 -24.80333 -24.80303 -24.80261
 Alpha  occ. eigenvalues --  -24.79607 -19.32547 -19.32359 -19.32029 -19.22254
 Alpha  occ. eigenvalues --  -19.22238 -19.22058 -14.49042 -14.49003 -14.48952
 Alpha  occ. eigenvalues --  -10.59356 -10.59090 -10.58842 -10.52462 -10.52389
 Alpha  occ. eigenvalues --  -10.52373 -10.46361 -10.46035 -10.45823 -10.43463
 Alpha  occ. eigenvalues --  -10.43460 -10.43375 -10.31523 -10.31481 -10.31053
 Alpha  occ. eigenvalues --  -10.28798 -10.28788 -10.28351 -10.27617 -10.27586
 Alpha  occ. eigenvalues --  -10.27572  -1.42955  -1.42686  -1.42512  -1.38799
 Alpha  occ. eigenvalues --   -1.38680  -1.38298  -1.35730  -1.35443  -1.35048
 Alpha  occ. eigenvalues --   -1.33541  -1.33148  -1.32961  -1.32838  -1.32400
 Alpha  occ. eigenvalues --   -1.32235  -1.31631  -1.31596  -1.30731  -1.29631
 Alpha  occ. eigenvalues --   -1.29223  -1.28910  -1.20601  -1.20496  -1.20295
 Alpha  occ. eigenvalues --   -1.20187  -1.15498  -1.15468  -1.07023  -1.04506
 Alpha  occ. eigenvalues --   -1.04410  -0.91926  -0.91460  -0.91382  -0.88331
 Alpha  occ. eigenvalues --   -0.87356  -0.87016  -0.83788  -0.82836  -0.82240
 Alpha  occ. eigenvalues --   -0.80256  -0.79141  -0.78896  -0.76399  -0.76175
 Alpha  occ. eigenvalues --   -0.75288  -0.73994  -0.73647  -0.71922  -0.71578
 Alpha  occ. eigenvalues --   -0.71265  -0.71028  -0.70625  -0.70416  -0.70186
 Alpha  occ. eigenvalues --   -0.69963  -0.69853  -0.69754  -0.69583  -0.69169
 Alpha  occ. eigenvalues --   -0.68814  -0.67080  -0.66760  -0.66625  -0.66125
 Alpha  occ. eigenvalues --   -0.65864  -0.65825  -0.63735  -0.63204  -0.63056
 Alpha  occ. eigenvalues --   -0.62853  -0.61136  -0.60995  -0.60662  -0.60185
 Alpha  occ. eigenvalues --   -0.59979  -0.59619  -0.57985  -0.57046  -0.56970
 Alpha  occ. eigenvalues --   -0.56953  -0.56535  -0.56268  -0.56084  -0.55974
 Alpha  occ. eigenvalues --   -0.55902  -0.55563  -0.55260  -0.55105  -0.54782
 Alpha  occ. eigenvalues --   -0.54585  -0.54299  -0.54151  -0.53949  -0.53880
 Alpha  occ. eigenvalues --   -0.53807  -0.53082  -0.52935  -0.52770  -0.52534
 Alpha  occ. eigenvalues --   -0.52407  -0.52281  -0.52070  -0.51747  -0.51615
 Alpha  occ. eigenvalues --   -0.51417  -0.51360  -0.51257  -0.51165  -0.50734
 Alpha  occ. eigenvalues --   -0.50529  -0.50446  -0.50275  -0.50218  -0.50056
 Alpha  occ. eigenvalues --   -0.49858  -0.49547  -0.49421  -0.49231  -0.49132
 Alpha  occ. eigenvalues --   -0.49031  -0.48835  -0.48682  -0.48430  -0.48246
 Alpha  occ. eigenvalues --   -0.48067  -0.47881  -0.47246  -0.46728  -0.46544
 Alpha  occ. eigenvalues --   -0.46416  -0.46280  -0.45439  -0.45215  -0.44881
 Alpha  occ. eigenvalues --   -0.44786  -0.43856  -0.43814  -0.43426  -0.42142
 Alpha  occ. eigenvalues --   -0.41822  -0.41677  -0.41291  -0.41242  -0.40272
 Alpha  occ. eigenvalues --   -0.38292  -0.38166  -0.35908  -0.34716  -0.34565
 Alpha  occ. eigenvalues --   -0.34343
 Alpha virt. eigenvalues --    0.03167   0.03261   0.10933   0.11129   0.11799
 Alpha virt. eigenvalues --    0.12005   0.12388   0.12650   0.13436   0.14960
 Alpha virt. eigenvalues --    0.15027   0.15259   0.15778   0.16352   0.17296

 Mulliken charges:
               1
     1  O   -0.534570
     2  C    0.820223
     3  N   -0.568057
     4  C   -0.057016
     5  C   -0.205372
     6  C   -0.256202
     7  C    0.538664
     8  F   -0.284658
     9  F   -0.285160
    10  C    0.774352
    11  F   -0.267493
    12  F   -0.266325
    13  O   -0.517234
    14  C    0.987335
    15  F   -0.247557
    16  F   -0.246913
    17  F   -0.248231
    18  C    0.823460
    19  O   -0.537149
    20  N   -0.569138
    21  C   -0.057413
    22  C   -0.205445
    23  C   -0.252004
    24  C    0.543555
    25  F   -0.282928
    26  F   -0.284250
    27  C    0.731765
    28  F   -0.260023
    29  F   -0.271555
    30  O   -0.493439
    31  C    0.980931
    32  F   -0.244470
    33  F   -0.237857
    34  F   -0.242784
    35  C    0.824915
    36  O   -0.538127
    37  N   -0.562275
    38  C   -0.062674
    39  C   -0.217902
    40  C   -0.262910
    41  C    0.553695
    42  F   -0.289796
    43  F   -0.267107
    44  C    0.756131
    45  F   -0.260718
    46  F   -0.266359
    47  O   -0.513788
    48  C    0.988577
    49  F   -0.248796
    50  F   -0.245119
    51  F   -0.244723
    52  H    0.151859
    53  H    0.150384
    54  H    0.133787
    55  H    0.133602
    56  H    0.146892
    57  H    0.146598
    58  H    0.150956
    59  H    0.151062
    60  H    0.132674
    61  H    0.134405
    62  H    0.140652
    63  H    0.146873
    64  H    0.157018
    65  H    0.148590
    66  H    0.130298
    67  H    0.133071
    68  H    0.143752
    69  H    0.147459
 Sum of Mulliken charges =   0.00000

 Dipole moment (field-independent basis, Debye):
    X=             -1.7259    Y=             -0.9870    Z=              3.8173  Tot=              4.3040
 Quadrupole moment (field-independent basis, Debye-Ang):
   XX=           -295.3045   YY=           -305.4066   ZZ=           -275.6888
   XY=             -5.2398   XZ=              3.5996   YZ=            -10.7974

 Normal termination of Gaussian 09 at Sun Feb  2 08:58:16 2025.
