 Gaussian 09, Revision D.01,
 Gaussian 09:  ES64L-G09RevD.01 24-Apr-2013

 ----------------------------------------------------------------------
 #p CAM-B3LYP/6-31G(d,p) SCRF=(PCM,Solvent=Generic,Read) NoSymm out=wfn
 ----------------------------------------------------------------------

 -----------------
 Title A4693530_p1
 -----------------
 Symbolic Z-matrix:
 Charge =  1 Multiplicity = 2

                          Input orientation:
 ---------------------------------------------------------------------
 Center     Atomic      Atomic             Coordinates (Angstroms)
 Number     Number       Type             X           Y           Z
 ---------------------------------------------------------------------
      1          6           0        4.601611    3.678348   -2.223496
      2          6           0        3.291946    3.623484   -1.480830
      3          6           0        3.038379    2.625087   -0.610544
      4          6           0        1.807217    2.392529    0.221053
      5          7           0        1.026498    1.235759   -0.254464
      6          6           0        1.710736   -0.107060   -0.257155
      7          6           0        0.981893   -1.196270   -1.075494
      8          6           0       -0.353325   -1.627003   -0.465458
      9          6           0       -1.352722   -0.460625   -0.327320
     10          7           0       -1.051018    0.642998   -1.263476
     11          6           0       -0.031668    1.567911   -1.099769
     12          8           0       -0.108728    2.673608   -1.637955
     13          6           0       -2.051580    0.917990   -2.294988
     14          6           0       -3.225041    1.624281   -1.677404
     15          6           0       -4.504917    1.210603   -1.584893
     16          6           0       -5.035205   -0.100409   -2.094385
     17          6           0       -5.543955    2.088509   -0.936342
     18          6           0       -1.573534    0.045708    1.119396
     19          6           0       -2.260309   -0.969875    2.006881
     20          6           0       -1.567757   -1.599384    3.049525
     21          6           0       -2.204125   -2.549340    3.850197
     22          6           0       -3.539825   -2.874303    3.622570
     23          6           0       -4.243243   -2.244550    2.598481
     24          6           0       -3.608477   -1.295096    1.796885
     25          8           0       -0.893401   -2.628351   -1.365933
     26          8           0        1.799107   -2.363335   -1.249571
     27          6           0        2.097601   -0.558040    1.183898
     28          6           0        3.114213   -1.668836    1.308254
     29          6           0        4.435207   -1.479575    0.879244
     30          6           0        5.378119   -2.499788    1.017022
     31          6           0        5.012827   -3.716587    1.588910
     32          6           0        3.704312   -3.914609    2.024249
     33          6           0        2.759889   -2.895729    1.887771
     34          6           0        2.347320    4.744127   -1.819415
     35          1           0        4.426679    3.638004   -3.303496
     36          1           0        5.131293    4.607878   -1.990213
     37          1           0        5.263334    2.845570   -1.963384
     38          1           0        3.828325    1.894841   -0.445563
     39          1           0        2.103539    2.216124    1.258500
     40          1           0        1.165924    3.277630    0.267554
     41          1           0        2.647940    0.048148   -0.804741
     42          1           0        0.825188   -0.834906   -2.099976
     43          1           0       -0.198530   -2.159357    0.476988
     44          1           0       -2.322063   -0.860800   -0.653157
     45          1           0       -2.309878   -0.028043   -2.777628
     46          1           0       -1.626607    1.555406   -3.078794
     47          1           0       -2.967965    2.608472   -1.282273
     48          1           0       -4.262124   -0.755941   -2.499072
     49          1           0       -5.530561   -0.647238   -1.284470
     50          1           0       -5.768592    0.075652   -2.888402
     51          1           0       -6.348465    2.310876   -1.645155
     52          1           0       -5.129279    3.043191   -0.595249
     53          1           0       -5.975608    1.583484   -0.065816
     54          1           0       -2.203866    0.945099    1.102604
     55          1           0       -0.638106    0.370549    1.581904
     56          1           0       -0.529262   -1.353391    3.256034
     57          1           0       -1.658835   -3.032268    4.657495
     58          1           0       -4.035037   -3.610710    4.250324
     59          1           0       -5.289202   -2.487550    2.428960
     60          1           0       -4.177594   -0.801307    1.011892
     61          1           0       -1.679802   -3.005141   -0.929516
     62          1           0        1.206585   -3.025501   -1.658773
     63          1           0        2.521976    0.279141    1.747859
     64          1           0        1.197760   -0.828291    1.741586
     65          1           0        4.741037   -0.537361    0.431881
     66          1           0        6.397677   -2.345620    0.673786
     67          1           0        5.746740   -4.511227    1.691391
     68          1           0        3.417603   -4.864877    2.466836
     69          1           0        1.743529   -3.072538    2.230069
     70          1           0        1.462176    4.778207   -1.181755
     71          1           0        2.854224    5.708890   -1.705774
     72          1           0        2.011803    4.652727   -2.857901
 ---------------------------------------------------------------------

 SCF Done:  E(UCAM-B3LYP) =  -1462.11966017     A.U. after   30 cycles

 Alpha  occ. eigenvalues --  -19.30711 -19.28103 -19.27968 -14.60479 -14.56184
 Alpha  occ. eigenvalues --  -10.49106 -10.40913 -10.40410 -10.39833 -10.39798
 Alpha  occ. eigenvalues --  -10.38720 -10.36693 -10.35093 -10.34847 -10.33660
 Alpha  occ. eigenvalues --  -10.33491 -10.33266 -10.32619 -10.32330 -10.32264
 Alpha  occ. eigenvalues --  -10.31888 -10.31814 -10.31775 -10.31718 -10.31621
 Alpha  occ. eigenvalues --  -10.30876 -10.30770 -10.30369 -10.30309 -10.30052
 Alpha  occ. eigenvalues --  -10.30009 -10.29794 -10.29261 -10.29068  -1.23834
 Alpha  occ. eigenvalues --   -1.19057  -1.15449  -1.14374  -1.11500  -1.00389
 Alpha  occ. eigenvalues --   -0.98398  -0.97606  -0.96279  -0.95087  -0.93958
 Alpha  occ. eigenvalues --   -0.91415  -0.90140  -0.88791  -0.88139  -0.86283
 Alpha  occ. eigenvalues --   -0.86098  -0.85006  -0.83517  -0.81909  -0.81168
 Alpha  occ. eigenvalues --   -0.80517  -0.79746  -0.77454  -0.75695  -0.73785
 Alpha  occ. eigenvalues --   -0.72093  -0.71975  -0.71172  -0.69816  -0.68845
 Alpha  occ. eigenvalues --   -0.67945  -0.67023  -0.66037  -0.64613  -0.64229
 Alpha  occ. eigenvalues --   -0.63258  -0.62866  -0.61949  -0.60950  -0.60591
 Alpha  occ. eigenvalues --   -0.60118  -0.59894  -0.58760  -0.58478  -0.58126
 Alpha  occ. eigenvalues --   -0.57839  -0.57045  -0.56657  -0.56269  -0.55915
 Alpha  occ. eigenvalues --   -0.55723  -0.55383  -0.54181  -0.54033  -0.53728
 Alpha  occ. eigenvalues --   -0.53495  -0.52981  -0.52408  -0.52190  -0.51310
 Alpha  occ. eigenvalues --   -0.51171  -0.50933  -0.50617  -0.50093  -0.49585
 Alpha  occ. eigenvalues --   -0.49461  -0.49047  -0.48590  -0.48372  -0.47806
 Alpha  occ. eigenvalues --   -0.47505  -0.47165  -0.46833  -0.46169  -0.45765
 Alpha  occ. eigenvalues --   -0.45227  -0.44880  -0.44387  -0.44184  -0.43843
 Alpha  occ. eigenvalues --   -0.42808  -0.41763  -0.40097  -0.39980  -0.37324
 Alpha  occ. eigenvalues --   -0.36197  -0.35691  -0.35119  -0.34222  -0.33396
 Alpha virt. eigenvalues --   -0.02228  -0.01495  -0.01029  -0.00169   0.00373
 Alpha virt. eigenvalues --    0.00871   0.01290   0.04168   0.04838   0.06113
 Alpha virt. eigenvalues --    0.06725   0.07276   0.08129   0.09063   0.09746

  Beta  occ. eigenvalues --  -19.30660 -19.28071 -19.28045 -14.59272 -14.55541
  Beta  occ. eigenvalues --  -10.49244 -10.40936 -10.40334 -10.39843 -10.39792
  Beta  occ. eigenvalues --  -10.38745 -10.36709 -10.35020 -10.34786 -10.33660
  Beta  occ. eigenvalues --  -10.33453 -10.33166 -10.32614 -10.32318 -10.32249
  Beta  occ. eigenvalues --  -10.31896 -10.31815 -10.31782 -10.31719 -10.31604
  Beta  occ. eigenvalues --  -10.30872 -10.30714 -10.30356 -10.30304 -10.30054
  Beta  occ. eigenvalues --  -10.30015 -10.29782 -10.29256 -10.29067  -1.23177
  Beta  occ. eigenvalues --   -1.18946  -1.15332  -1.12902  -1.10411  -1.00301
  Beta  occ. eigenvalues --   -0.98345  -0.97371  -0.95990  -0.94980  -0.93794
  Beta  occ. eigenvalues --   -0.91238  -0.89956  -0.88677  -0.88126  -0.86259
  Beta  occ. eigenvalues --   -0.85741  -0.84845  -0.83461  -0.81644  -0.81150
  Beta  occ. eigenvalues --   -0.80370  -0.79531  -0.77226  -0.75447  -0.73752
  Beta  occ. eigenvalues --   -0.72006  -0.71837  -0.70896  -0.69726  -0.67909
  Beta  occ. eigenvalues --   -0.67404  -0.66675  -0.65642  -0.64330  -0.64078
  Beta  occ. eigenvalues --   -0.62786  -0.62572  -0.61603  -0.60538  -0.60476
  Beta  occ. eigenvalues --   -0.59559  -0.59497  -0.58505  -0.58337  -0.57920
  Beta  occ. eigenvalues --   -0.57616  -0.56931  -0.56569  -0.56145  -0.55742
  Beta  occ. eigenvalues --   -0.55622  -0.54788  -0.54150  -0.53998  -0.53617
  Beta  occ. eigenvalues --   -0.53289  -0.52727  -0.52249  -0.52168  -0.51206
  Beta  occ. eigenvalues --   -0.51083  -0.50830  -0.50447  -0.49815  -0.49440
  Beta  occ. eigenvalues --   -0.49080  -0.48957  -0.48474  -0.48014  -0.47657
  Beta  occ. eigenvalues --   -0.47321  -0.46862  -0.46656  -0.46080  -0.45694
  Beta  occ. eigenvalues --   -0.45082  -0.44570  -0.44339  -0.43906  -0.42745
  Beta  occ. eigenvalues --   -0.42426  -0.40068  -0.37978  -0.36435  -0.36168
  Beta  occ. eigenvalues --   -0.35634  -0.34683  -0.34196  -0.33208
  Beta virt. eigenvalues --   -0.23622  -0.02013  -0.01401  -0.00756   0.00427
  Beta virt. eigenvalues --    0.00602   0.01037   0.01502   0.04194   0.04905
  Beta virt. eigenvalues --    0.06175   0.06824   0.07445   0.08305   0.09137

 Mulliken charges and spin densities:
               1          2
     1  C   -0.364800   0.001904
     2  C    0.135644   0.002519
     3  C   -0.144585   0.027379
     4  C   -0.110706  -0.013415
     5  N   -0.437649   0.298463
     6  C    0.037534  -0.014290
     7  C    0.150445   0.000341
     8  C    0.152567   0.035223
     9  C    0.010537  -0.025494
    10  N   -0.340500   0.550975
    11  C    0.752453  -0.081133
    12  O   -0.494871  -0.026261
    13  C   -0.136325  -0.022502
    14  C   -0.141695   0.038059
    15  C    0.137318   0.052996
    16  C   -0.374163  -0.002669
    17  C   -0.366300  -0.000449
    18  C   -0.255001   0.034074
    19  C    0.085104  -0.001052
    20  C   -0.137169   0.010330
    21  C   -0.092600  -0.006504
    22  C   -0.089568   0.013951
    23  C   -0.092470  -0.006269
    24  C   -0.132039   0.009248
    25  O   -0.571905   0.017568
    26  O   -0.553105   0.010912
    27  C   -0.269302   0.017071
    28  C    0.140357  -0.000640
    29  C   -0.125632   0.004391
    30  C   -0.092473  -0.002033
    31  C   -0.092134   0.009776
    32  C   -0.093317  -0.005371
    33  C   -0.128965   0.008884
    34  C   -0.356582   0.000447
    35  H    0.132612   0.001137
    36  H    0.134497  -0.000231
    37  H    0.117082  -0.000094
    38  H    0.097235   0.000105
    39  H    0.151514   0.007964
    40  H    0.163435   0.001063
    41  H    0.178371   0.023566
    42  H    0.127432   0.001530
    43  H    0.144558   0.000774
    44  H    0.155765   0.001615
    45  H    0.166603   0.020323
    46  H    0.195790   0.000061
    47  H    0.131867   0.000569
    48  H    0.110703  -0.000173
    49  H    0.137228   0.003429
    50  H    0.155567   0.002560
    51  H    0.144702   0.000952
    52  H    0.130467  -0.000088
    53  H    0.136497   0.005051
    54  H    0.151229  -0.001285
    55  H    0.134345  -0.002376
    56  H    0.108298  -0.000461
    57  H    0.120865   0.000314
    58  H    0.121587  -0.000591
    59  H    0.117619   0.000202
    60  H    0.098007  -0.000397
    61  H    0.342405  -0.000483
    62  H    0.345264  -0.000487
    63  H    0.143990  -0.000520
    64  H    0.109001   0.000000
    65  H    0.092686  -0.000205
    66  H    0.110052   0.000056
    67  H    0.109941  -0.000397
    68  H    0.106994   0.000201
    69  H    0.085356  -0.000388
    70  H    0.120390   0.000163
    71  H    0.125906  -0.000048
    72  H    0.136037   0.000157
 Sum of Mulliken charges =   1.00000   1.00000

 Dipole moment (field-independent basis, Debye):
    X=             -5.3321    Y=             -0.3210    Z=             -0.7827  Tot=              5.3988
 Quadrupole moment (field-independent basis, Debye-Ang):
   XX=           -136.0241   YY=           -172.8934   ZZ=           -182.7482
   XY=             11.5448   XZ=              4.1962   YZ=            -13.4812

 Normal termination of Gaussian 09 at Mon Mar  4 23:41:11 2024.
