 Gaussian 09, Revision D.01,
 Gaussian 09:  ES64L-G09RevD.01 24-Apr-2013

 ----------------------------------------------------------------------
 #p CAM-B3LYP/6-31G(d,p) SCRF=(PCM,Solvent=Generic,Read) NoSymm out=wfn
 ----------------------------------------------------------------------

 ----------------
 Title A4693530_0
 ----------------
 Symbolic Z-matrix:
 Charge =  0 Multiplicity = 1

                          Input orientation:
 ---------------------------------------------------------------------
 Center     Atomic      Atomic             Coordinates (Angstroms)
 Number     Number       Type             X           Y           Z
 ---------------------------------------------------------------------
      1          6           0        4.601611    3.678348   -2.223496
      2          6           0        3.291946    3.623484   -1.480830
      3          6           0        3.038379    2.625087   -0.610544
      4          6           0        1.807217    2.392529    0.221053
      5          7           0        1.026498    1.235759   -0.254464
      6          6           0        1.710736   -0.107060   -0.257155
      7          6           0        0.981893   -1.196270   -1.075494
      8          6           0       -0.353325   -1.627003   -0.465458
      9          6           0       -1.352722   -0.460625   -0.327320
     10          7           0       -1.051018    0.642998   -1.263476
     11          6           0       -0.031668    1.567911   -1.099769
     12          8           0       -0.108728    2.673608   -1.637955
     13          6           0       -2.051580    0.917990   -2.294988
     14          6           0       -3.225041    1.624281   -1.677404
     15          6           0       -4.504917    1.210603   -1.584893
     16          6           0       -5.035205   -0.100409   -2.094385
     17          6           0       -5.543955    2.088509   -0.936342
     18          6           0       -1.573534    0.045708    1.119396
     19          6           0       -2.260309   -0.969875    2.006881
     20          6           0       -1.567757   -1.599384    3.049525
     21          6           0       -2.204125   -2.549340    3.850197
     22          6           0       -3.539825   -2.874303    3.622570
     23          6           0       -4.243243   -2.244550    2.598481
     24          6           0       -3.608477   -1.295096    1.796885
     25          8           0       -0.893401   -2.628351   -1.365933
     26          8           0        1.799107   -2.363335   -1.249571
     27          6           0        2.097601   -0.558040    1.183898
     28          6           0        3.114213   -1.668836    1.308254
     29          6           0        4.435207   -1.479575    0.879244
     30          6           0        5.378119   -2.499788    1.017022
     31          6           0        5.012827   -3.716587    1.588910
     32          6           0        3.704312   -3.914609    2.024249
     33          6           0        2.759889   -2.895729    1.887771
     34          6           0        2.347320    4.744127   -1.819415
     35          1           0        4.426679    3.638004   -3.303496
     36          1           0        5.131293    4.607878   -1.990213
     37          1           0        5.263334    2.845570   -1.963384
     38          1           0        3.828325    1.894841   -0.445563
     39          1           0        2.103539    2.216124    1.258500
     40          1           0        1.165924    3.277630    0.267554
     41          1           0        2.647940    0.048148   -0.804741
     42          1           0        0.825188   -0.834906   -2.099976
     43          1           0       -0.198530   -2.159357    0.476988
     44          1           0       -2.322063   -0.860800   -0.653157
     45          1           0       -2.309878   -0.028043   -2.777628
     46          1           0       -1.626607    1.555406   -3.078794
     47          1           0       -2.967965    2.608472   -1.282273
     48          1           0       -4.262124   -0.755941   -2.499072
     49          1           0       -5.530561   -0.647238   -1.284470
     50          1           0       -5.768592    0.075652   -2.888402
     51          1           0       -6.348465    2.310876   -1.645155
     52          1           0       -5.129279    3.043191   -0.595249
     53          1           0       -5.975608    1.583484   -0.065816
     54          1           0       -2.203866    0.945099    1.102604
     55          1           0       -0.638106    0.370549    1.581904
     56          1           0       -0.529262   -1.353391    3.256034
     57          1           0       -1.658835   -3.032268    4.657495
     58          1           0       -4.035037   -3.610710    4.250324
     59          1           0       -5.289202   -2.487550    2.428960
     60          1           0       -4.177594   -0.801307    1.011892
     61          1           0       -1.679802   -3.005141   -0.929516
     62          1           0        1.206585   -3.025501   -1.658773
     63          1           0        2.521976    0.279141    1.747859
     64          1           0        1.197760   -0.828291    1.741586
     65          1           0        4.741037   -0.537361    0.431881
     66          1           0        6.397677   -2.345620    0.673786
     67          1           0        5.746740   -4.511227    1.691391
     68          1           0        3.417603   -4.864877    2.466836
     69          1           0        1.743529   -3.072538    2.230069
     70          1           0        1.462176    4.778207   -1.181755
     71          1           0        2.854224    5.708890   -1.705774
     72          1           0        2.011803    4.652727   -2.857901
 ---------------------------------------------------------------------

 SCF Done:  E(RCAM-B3LYP) =  -1462.37534939     A.U. after   13 cycles

 Alpha  occ. eigenvalues --  -19.22948 -19.20783 -19.16915 -14.42421 -14.42200
 Alpha  occ. eigenvalues --  -10.37609 -10.31454 -10.31430 -10.31076 -10.30735
 Alpha  occ. eigenvalues --  -10.28490 -10.28460 -10.27625 -10.26890 -10.26821
 Alpha  occ. eigenvalues --  -10.26730 -10.26721 -10.26684 -10.26645 -10.26607
 Alpha  occ. eigenvalues --  -10.26389 -10.26346 -10.26226 -10.25675 -10.25646
 Alpha  occ. eigenvalues --  -10.25508 -10.25497 -10.25463 -10.25408 -10.24958
 Alpha  occ. eigenvalues --  -10.24677 -10.24455 -10.24183 -10.23756  -1.11796
 Alpha  occ. eigenvalues --   -1.11091  -1.07973  -1.01000  -0.99602  -0.94467
 Alpha  occ. eigenvalues --   -0.93248  -0.89381  -0.88498  -0.87845  -0.86699
 Alpha  occ. eigenvalues --   -0.83922  -0.82913  -0.81717  -0.81581  -0.81350
 Alpha  occ. eigenvalues --   -0.78101  -0.77653  -0.77158  -0.75955  -0.73921
 Alpha  occ. eigenvalues --   -0.72541  -0.71414  -0.69638  -0.68385  -0.67295
 Alpha  occ. eigenvalues --   -0.66750  -0.65866  -0.64037  -0.62189  -0.59501
 Alpha  occ. eigenvalues --   -0.59260  -0.58689  -0.58273  -0.57356  -0.57003
 Alpha  occ. eigenvalues --   -0.56854  -0.54119  -0.53976  -0.53140  -0.52685
 Alpha  occ. eigenvalues --   -0.52516  -0.51947  -0.51702  -0.51513  -0.51229
 Alpha  occ. eigenvalues --   -0.51038  -0.50548  -0.50183  -0.49762  -0.49108
 Alpha  occ. eigenvalues --   -0.48988  -0.47934  -0.47839  -0.47572  -0.47201
 Alpha  occ. eigenvalues --   -0.46659  -0.45770  -0.45449  -0.45261  -0.45167
 Alpha  occ. eigenvalues --   -0.44163  -0.43861  -0.43647  -0.43309  -0.43269
 Alpha  occ. eigenvalues --   -0.42852  -0.42464  -0.42177  -0.41748  -0.41256
 Alpha  occ. eigenvalues --   -0.41038  -0.40593  -0.40302  -0.40121  -0.39459
 Alpha  occ. eigenvalues --   -0.39360  -0.38834  -0.38444  -0.37719  -0.35268
 Alpha  occ. eigenvalues --   -0.33257  -0.32158  -0.31026  -0.30519  -0.29728
 Alpha  occ. eigenvalues --   -0.29625  -0.29327  -0.28399  -0.28189  -0.27313
 Alpha virt. eigenvalues --    0.03710   0.04051   0.05146   0.05479   0.07418
 Alpha virt. eigenvalues --    0.07962   0.10254   0.10780   0.11507   0.12076
 Alpha virt. eigenvalues --    0.13049   0.14531   0.15211   0.15732   0.16122

 Mulliken charges:
               1
     1  C   -0.361063
     2  C    0.123265
     3  C   -0.125354
     4  C   -0.082064
     5  N   -0.506472
     6  C    0.067424
     7  C    0.166148
     8  C    0.157891
     9  C    0.053576
    10  N   -0.472790
    11  C    0.735226
    12  O   -0.563377
    13  C   -0.100857
    14  C   -0.115966
    15  C    0.111226
    16  C   -0.366013
    17  C   -0.359330
    18  C   -0.242986
    19  C    0.086385
    20  C   -0.138131
    21  C   -0.096547
    22  C   -0.098153
    23  C   -0.096561
    24  C   -0.134663
    25  O   -0.595194
    26  O   -0.579967
    27  C   -0.260466
    28  C    0.143973
    29  C   -0.125005
    30  C   -0.095841
    31  C   -0.098721
    32  C   -0.096174
    33  C   -0.129954
    34  C   -0.349357
    35  H    0.117814
    36  H    0.113201
    37  H    0.106366
    38  H    0.074656
    39  H    0.106170
    40  H    0.133004
    41  H    0.125771
    42  H    0.113074
    43  H    0.103578
    44  H    0.111490
    45  H    0.108202
    46  H    0.144397
    47  H    0.097684
    48  H    0.109097
    49  H    0.110674
    50  H    0.122655
    51  H    0.115205
    52  H    0.114559
    53  H    0.110855
    54  H    0.125999
    55  H    0.118747
    56  H    0.098118
    57  H    0.100893
    58  H    0.098628
    59  H    0.099105
    60  H    0.099151
    61  H    0.324693
    62  H    0.329182
    63  H    0.120537
    64  H    0.098439
    65  H    0.088860
    66  H    0.093769
    67  H    0.090747
    68  H    0.091361
    69  H    0.082148
    70  H    0.124039
    71  H    0.098931
    72  H    0.124092
 Sum of Mulliken charges =   0.00000

 Dipole moment (field-independent basis, Debye):
    X=             -2.9300    Y=             -2.1522    Z=              1.8968  Tot=              4.1006
 Quadrupole moment (field-independent basis, Debye-Ang):
   XX=           -185.7963   YY=           -202.0469   ZZ=           -203.4366
   XY=             11.1078   XZ=              0.6329   YZ=             -2.2294

 Normal termination of Gaussian 09 at Mon Mar  4 23:38:45 2024.
