 Gaussian 09, Revision D.01,
 Gaussian 09:  ES64L-G09RevD.01 24-Apr-2013

 ----------------------------------------------------------------------
 #p CAM-B3LYP/6-31G(d,p) SCRF=(PCM,Solvent=Generic,Read) NoSymm out=wfn
 ----------------------------------------------------------------------

 ---------------
 Title FFKM1_pos
 ---------------
 Symbolic Z-matrix:
 Charge =  1 Multiplicity = 2

                          Input orientation:
 ---------------------------------------------------------------------
 Center     Atomic      Atomic             Coordinates (Angstroms)
 Number     Number       Type             X           Y           Z
 ---------------------------------------------------------------------
      1          9           0       -3.020776    0.958044    1.130967
      2          6           0       -2.311161    1.220439    0.018661
      3          9           0       -2.879065    0.622396   -1.042285
      4          9           0       -2.327718    2.553388   -0.186145
      5          8           0       -0.977758    0.824598    0.194884
      6          6           0       -0.865881   -0.567340    0.041095
      7          9           0       -0.998064   -0.869250   -1.270492
      8          9           0       -1.896811   -1.153528    0.699517
      9          6           0        0.455913   -1.110863    0.581744
     10          9           0        0.646608   -0.659605    1.857546
     11          9           0        0.360263   -2.474872    0.697690
     12          6           0        1.665006   -0.795831   -0.268857
     13          9           0        2.770349   -1.343702    0.331054
     14          9           0        1.568128   -1.424106   -1.477850
     15          6           0        1.892285    0.686344   -0.476447
     16          9           0        1.904288    1.371786    0.687466
     17          9           0        0.939261    1.237697   -1.262814
     18          9           0        3.075134    0.924403   -1.093937
 ---------------------------------------------------------------------

 SCF Done:  E(UCAM-B3LYP) =  -1463.03435457     A.U. after   27 cycles

 Alpha  occ. eigenvalues --  -24.95458 -24.95302 -24.94953 -24.94590 -24.93115
 Alpha  occ. eigenvalues --  -24.92911 -24.92000 -24.91523 -24.90767 -24.89827
 Alpha  occ. eigenvalues --  -24.88496 -24.88491 -19.44170 -10.66023 -10.65277
 Alpha  occ. eigenvalues --  -10.64774 -10.63389 -10.62729  -1.51865  -1.50368
 Alpha  occ. eigenvalues --   -1.49317  -1.48073  -1.47227  -1.43305  -1.42754
 Alpha  occ. eigenvalues --   -1.42166  -1.40733  -1.39962  -1.38983  -1.37899
 Alpha  occ. eigenvalues --   -1.31284  -1.07191  -0.98750  -0.92520  -0.87677
 Alpha  occ. eigenvalues --   -0.84224  -0.82306  -0.81224  -0.80658  -0.79247
 Alpha  occ. eigenvalues --   -0.77921  -0.77563  -0.75835  -0.75304  -0.74874
 Alpha  occ. eigenvalues --   -0.74292  -0.73886  -0.69518  -0.68053  -0.66432
 Alpha  occ. eigenvalues --   -0.66225  -0.65499  -0.64730  -0.64446  -0.63390
 Alpha  occ. eigenvalues --   -0.63237  -0.63017  -0.61946  -0.61784  -0.61297
 Alpha  occ. eigenvalues --   -0.61091  -0.60118  -0.59936  -0.59397  -0.59056
 Alpha  occ. eigenvalues --   -0.58411  -0.57885  -0.57396  -0.57047  -0.56478
 Alpha  occ. eigenvalues --   -0.55548  -0.54991  -0.54586
 Alpha virt. eigenvalues --   -0.05581  -0.04439   0.03376   0.03991   0.10039
 Alpha virt. eigenvalues --    0.11831   0.12738   0.14338   0.15342   0.16149
 Alpha virt. eigenvalues --    0.17438   0.18339   0.18725   0.19407   0.22166

  Beta  occ. eigenvalues --  -24.95147 -24.94972 -24.94664 -24.94292 -24.92943
  Beta  occ. eigenvalues --  -24.92765 -24.91856 -24.91433 -24.90649 -24.89757
  Beta  occ. eigenvalues --  -24.88466 -24.88457 -19.43707 -10.66038 -10.65179
  Beta  occ. eigenvalues --  -10.64679 -10.63154 -10.62508  -1.51349  -1.50022
  Beta  occ. eigenvalues --   -1.48910  -1.47548  -1.46956  -1.42637  -1.42070
  Beta  occ. eigenvalues --   -1.41762  -1.40418  -1.39672  -1.38853  -1.37815
  Beta  occ. eigenvalues --   -1.30318  -1.06035  -0.97695  -0.91324  -0.86815
  Beta  occ. eigenvalues --   -0.83902  -0.81617  -0.80788  -0.80286  -0.78915
  Beta  occ. eigenvalues --   -0.77624  -0.77024  -0.75503  -0.74936  -0.74576
  Beta  occ. eigenvalues --   -0.74028  -0.73578  -0.69076  -0.67449  -0.65457
  Beta  occ. eigenvalues --   -0.64655  -0.63750  -0.63518  -0.62893  -0.62544
  Beta  occ. eigenvalues --   -0.62311  -0.61698  -0.61583  -0.61245  -0.60876
  Beta  occ. eigenvalues --   -0.60272  -0.59603  -0.59141  -0.58963  -0.58601
  Beta  occ. eigenvalues --   -0.57907  -0.57366  -0.56845  -0.56618  -0.55072
  Beta  occ. eigenvalues --   -0.54805  -0.51727
  Beta virt. eigenvalues --   -0.39836  -0.05121  -0.03846   0.04071   0.04468
  Beta virt. eigenvalues --    0.10677   0.12187   0.13108   0.14669   0.15847
  Beta virt. eigenvalues --    0.16571   0.17709   0.18435   0.19207   0.19828

 Mulliken charges and spin densities:
               1          2
     1  F   -0.217591   0.007938
     2  C    1.022034  -0.009040
     3  F   -0.211537   0.019127
     4  F   -0.212928   0.011066
     5  O   -0.428910   0.169826
     6  C    0.790431   0.031302
     7  F   -0.187273   0.049576
     8  F   -0.194887   0.044337
     9  C    0.532658   0.092203
    10  F   -0.157584   0.091184
    11  F   -0.166886   0.085916
    12  C    0.515252   0.085034
    13  F   -0.166994   0.087937
    14  F   -0.158933   0.095503
    15  C    0.825627   0.037714
    16  F   -0.195770   0.025794
    17  F   -0.192452   0.040618
    18  F   -0.194258   0.033965
 Sum of Mulliken charges =   1.00000   1.00000

 Dipole moment (field-independent basis, Debye):
    X=              1.9097    Y=             -1.9947    Z=              0.0969  Tot=              2.7632
 Quadrupole moment (field-independent basis, Debye-Ang):
   XX=            -75.0881   YY=            -82.1495   ZZ=            -85.5832
   XY=             -3.1274   XZ=             -0.9512   YZ=             -1.1317

 Normal termination of Gaussian 09 at Sun Feb  2 05:49:15 2025.
