 Gaussian 09, Revision D.01,
 Gaussian 09:  ES64L-G09RevD.01 24-Apr-2013

 ----------------------------------------------------------------------
 #p CAM-B3LYP/6-31G(d,p) SCRF=(PCM,Solvent=Generic,Read) NoSymm out=wfn
 ----------------------------------------------------------------------

 ---------------
 Title FFKM1_neu
 ---------------
 Symbolic Z-matrix:
 Charge =  0 Multiplicity = 1

                          Input orientation:
 ---------------------------------------------------------------------
 Center     Atomic      Atomic             Coordinates (Angstroms)
 Number     Number       Type             X           Y           Z
 ---------------------------------------------------------------------
      1          9           0       -3.020776    0.958044    1.130967
      2          6           0       -2.311161    1.220439    0.018661
      3          9           0       -2.879065    0.622396   -1.042285
      4          9           0       -2.327718    2.553388   -0.186145
      5          8           0       -0.977758    0.824598    0.194884
      6          6           0       -0.865881   -0.567340    0.041095
      7          9           0       -0.998064   -0.869250   -1.270492
      8          9           0       -1.896811   -1.153528    0.699517
      9          6           0        0.455913   -1.110863    0.581744
     10          9           0        0.646608   -0.659605    1.857546
     11          9           0        0.360263   -2.474872    0.697690
     12          6           0        1.665006   -0.795831   -0.268857
     13          9           0        2.770349   -1.343702    0.331054
     14          9           0        1.568128   -1.424106   -1.477850
     15          6           0        1.892285    0.686344   -0.476447
     16          9           0        1.904288    1.371786    0.687466
     17          9           0        0.939261    1.237697   -1.262814
     18          9           0        3.075134    0.924403   -1.093937
 ---------------------------------------------------------------------

 SCF Done:  E(RCAM-B3LYP) =  -1463.45627454     A.U. after   11 cycles

 Alpha  occ. eigenvalues --  -24.83829 -24.83729 -24.83644 -24.83532 -24.83525
 Alpha  occ. eigenvalues --  -24.83492 -24.83484 -24.83281 -24.83230 -24.83185
 Alpha  occ. eigenvalues --  -24.83094 -24.83040 -19.32923 -10.59641 -10.55435
 Alpha  occ. eigenvalues --  -10.54401 -10.50060 -10.49918  -1.43321  -1.42319
 Alpha  occ. eigenvalues --   -1.40403  -1.38768  -1.37231  -1.33752  -1.33322
 Alpha  occ. eigenvalues --   -1.33022  -1.32578  -1.32464  -1.32083  -1.31635
 Alpha  occ. eigenvalues --   -1.21293  -0.95352  -0.88339  -0.82641  -0.79050
 Alpha  occ. eigenvalues --   -0.75710  -0.73161  -0.72693  -0.71163  -0.70413
 Alpha  occ. eigenvalues --   -0.69984  -0.69666  -0.68110  -0.67790  -0.66405
 Alpha  occ. eigenvalues --   -0.65296  -0.64507  -0.61428  -0.58550  -0.57756
 Alpha  occ. eigenvalues --   -0.57027  -0.56587  -0.56126  -0.55834  -0.54974
 Alpha  occ. eigenvalues --   -0.54772  -0.54104  -0.53646  -0.53097  -0.52922
 Alpha  occ. eigenvalues --   -0.52668  -0.51949  -0.51642  -0.51257  -0.51063
 Alpha  occ. eigenvalues --   -0.50697  -0.50295  -0.50078  -0.49810  -0.49138
 Alpha  occ. eigenvalues --   -0.47738  -0.45296  -0.44520
 Alpha virt. eigenvalues --    0.05341   0.06174   0.13396   0.13901   0.19222
 Alpha virt. eigenvalues --    0.20485   0.21651   0.22476   0.23753   0.24160
 Alpha virt. eigenvalues --    0.24720   0.27182   0.28445   0.28994   0.31857

 Mulliken charges:
               1
     1  F   -0.243864
     2  C    0.994693
     3  F   -0.241887
     4  F   -0.243286
     5  O   -0.512796
     6  C    0.761369
     7  F   -0.251015
     8  F   -0.261425
     9  C    0.509935
    10  F   -0.259030
    11  F   -0.268100
    12  C    0.493249
    13  F   -0.267075
    14  F   -0.260035
    15  C    0.778924
    16  F   -0.241158
    17  F   -0.239719
    18  F   -0.248780
 Sum of Mulliken charges =   0.00000

 Dipole moment (field-independent basis, Debye):
    X=             -0.0776    Y=             -0.0016    Z=             -0.0748  Tot=              0.1078
 Quadrupole moment (field-independent basis, Debye-Ang):
   XX=            -93.2221   YY=            -93.5465   ZZ=            -92.9493
   XY=              0.1197   XZ=              0.2572   YZ=              0.0820

 Normal termination of Gaussian 09 at Sat Feb  1 13:58:36 2025.
