 Gaussian 09, Revision D.01,
 Gaussian 09:  ES64L-G09RevD.01 24-Apr-2013

 ----------------------------------------------------------------------
 #p CAM-B3LYP/6-31G(d,p) SCRF=(PCM,Solvent=Generic,Read) NoSymm out=wfn
 ----------------------------------------------------------------------

 ------------
 Title A1_neu
 ------------
 Symbolic Z-matrix:
 Charge =  0 Multiplicity = 1

                          Input orientation:
 ---------------------------------------------------------------------
 Center     Atomic      Atomic             Coordinates (Angstroms)
 Number     Number       Type             X           Y           Z
 ---------------------------------------------------------------------
      1          9           0        1.219555   -0.469690   -1.438345
      2          6           0        0.779469    0.332949   -0.433167
      3          6           0        1.859349    0.388257    0.635317
      4          9           0        2.873015    1.199583    0.210166
      5          6           0        2.459220   -0.988782    0.943508
      6          9           0        3.387143   -0.910389    1.927950
      7          9           0        1.537727   -1.892104    1.338213
      8          9           0        3.081449   -1.514937   -0.138147
      9          9           0        1.383421    0.968605    1.765430
     10          6           0       -0.588027   -0.090257    0.124421
     11          8           0       -1.353326    1.094617    0.425186
     12          6           0       -0.573582    2.207188   -0.002239
     13          9           0       -1.389548    3.149855   -0.509243
     14          9           0        0.009738    2.724478    1.096926
     15          6           0        0.432513    1.683224   -0.998645
     16          9           0       -0.184363    1.508533   -2.201908
     17          9           0        1.476877    2.492203   -1.231086
     18          6           0       -1.350805   -1.040682   -0.812442
     19          9           0       -0.566629   -2.129401   -1.072131
     20          6           0       -2.669780   -1.438875   -0.163976
     21          8           0       -2.607324   -2.577909    0.562757
     22          8           0       -3.728862   -0.832062   -0.237334
     23          9           0       -1.551370   -0.437054   -2.016656
     24          9           0       -0.418617   -0.713200    1.320078
     25          1           0       -3.517242   -2.714148    0.905365
 ---------------------------------------------------------------------

 SCF Done:  E(RCAM-B3LYP) =  -1828.51012830     A.U. after   13 cycles

 Alpha  occ. eigenvalues --  -24.83787 -24.83614 -24.83599 -24.83271 -24.83261
 Alpha  occ. eigenvalues --  -24.83196 -24.83036 -24.83018 -24.82991 -24.82935
 Alpha  occ. eigenvalues --  -24.82926 -24.82631 -24.82482 -19.32503 -19.30194
 Alpha  occ. eigenvalues --  -19.25538 -10.55211 -10.53167 -10.50343 -10.49345
 Alpha  occ. eigenvalues --  -10.49229 -10.48086 -10.44489 -10.43663  -1.42154
 Alpha  occ. eigenvalues --   -1.40852  -1.38866  -1.38602  -1.38264  -1.36198
 Alpha  occ. eigenvalues --   -1.35719  -1.33016  -1.32944  -1.32424  -1.32148
 Alpha  occ. eigenvalues --   -1.31769  -1.31287  -1.22125  -1.20745  -1.12282
 Alpha  occ. eigenvalues --   -0.98213  -0.91933  -0.90315  -0.85132  -0.80377
 Alpha  occ. eigenvalues --   -0.77962  -0.76058  -0.74109  -0.71988  -0.71386
 Alpha  occ. eigenvalues --   -0.71117  -0.69991  -0.69155  -0.68617  -0.67862
 Alpha  occ. eigenvalues --   -0.67179  -0.66187  -0.66067  -0.65364  -0.64730
 Alpha  occ. eigenvalues --   -0.63902  -0.62186  -0.58528  -0.58407  -0.57848
 Alpha  occ. eigenvalues --   -0.57638  -0.57084  -0.56289  -0.55798  -0.55711
 Alpha  occ. eigenvalues --   -0.55330  -0.54513  -0.54228  -0.54117  -0.53728
 Alpha  occ. eigenvalues --   -0.53024  -0.52826  -0.52669  -0.52390  -0.51601
 Alpha  occ. eigenvalues --   -0.51329  -0.51156  -0.50792  -0.50409  -0.50008
 Alpha  occ. eigenvalues --   -0.49754  -0.49538  -0.49278  -0.48211  -0.47026
 Alpha  occ. eigenvalues --   -0.44884  -0.43489  -0.42998  -0.41141  -0.37709
 Alpha virt. eigenvalues --   -0.00711   0.04089   0.06664   0.07753   0.11184
 Alpha virt. eigenvalues --    0.12155   0.12882   0.15992   0.16448   0.20280
 Alpha virt. eigenvalues --    0.21570   0.23507   0.24320   0.25021   0.25622

 Mulliken charges:
               1
     1  F   -0.283738
     2  C    0.131660
     3  C    0.526854
     4  F   -0.267267
     5  C    0.789385
     6  F   -0.248595
     7  F   -0.238357
     8  F   -0.245160
     9  F   -0.255685
    10  C    0.477026
    11  O   -0.488029
    12  C    0.750554
    13  F   -0.241646
    14  F   -0.238649
    15  C    0.552483
    16  F   -0.262915
    17  F   -0.247145
    18  C    0.620244
    19  F   -0.270930
    20  C    0.526954
    21  O   -0.471782
    22  O   -0.439468
    23  F   -0.263491
    24  F   -0.273429
    25  H    0.361126
 Sum of Mulliken charges =   0.00000

 Dipole moment (field-independent basis, Debye):
    X=             -0.4196    Y=             -1.3129    Z=              0.8010  Tot=              1.5942
 Quadrupole moment (field-independent basis, Debye-Ang):
   XX=           -126.2047   YY=           -122.3470   ZZ=           -126.2308
   XY=              9.3106   XZ=             -4.3512   YZ=             -2.1448

 Normal termination of Gaussian 09 at Mon Feb  3 21:44:10 2025.
