 Gaussian 09, Revision D.01,
 Gaussian 09:  ES64L-G09RevD.01 24-Apr-2013

 ----------------------------------------------------------------------
 #p CAM-B3LYP/6-31G(d,p) SCRF=(PCM,Solvent=Generic,Read) NoSymm out=wfn
 ----------------------------------------------------------------------

 --------------------
 Title A1303169711_p1
 --------------------
 Symbolic Z-matrix:
 Charge =  1 Multiplicity = 2

                          Input orientation:
 ---------------------------------------------------------------------
 Center     Atomic      Atomic             Coordinates (Angstroms)
 Number     Number       Type             X           Y           Z
 ---------------------------------------------------------------------
      1          6           0        1.507388    4.152387   -1.886993
      2          6           0        0.164865    4.232348   -1.177876
      3          6           0        0.146189    3.545615    0.190617
      4          7           0        0.151009    2.083853    0.139908
      5          6           0        1.402261    1.390770    0.082548
      6          7           0        1.268083    0.078497    0.631161
      7          6           0        2.446914   -0.558049    1.208683
      8          9           0        3.433051    0.392139    1.276455
      9          9           0        2.159876   -0.820378    2.518233
     10          6           0        3.079426   -1.827369    0.558810
     11          9           0        4.306667   -2.008435    1.154205
     12          8           0        2.341930   -2.998961    0.894475
     13          6           0        2.706729   -4.119567    0.141537
     14          9           0        2.227094   -3.992417   -1.107406
     15          9           0        2.173830   -5.219853    0.702395
     16          9           0        4.042579   -4.255450    0.103365
     17          6           0        3.297549   -1.480426   -0.916612
     18          9           0        3.944663   -0.299384   -1.069657
     19          9           0        4.034207   -2.408219   -1.566109
     20          9           0        2.128420   -1.360996   -1.588542
     21          6           0        0.136173   -0.641167    0.365176
     22          8           0        0.065358   -1.828160    0.657409
     23          7           0       -0.894441    0.036511   -0.244134
     24          6           0       -2.073452   -0.727571   -0.610095
     25          9           0       -2.799977   -0.046179   -1.549504
     26          9           0       -1.624295   -1.815821   -1.326992
     27          6           0       -3.041446   -1.258180    0.485369
     28          9           0       -2.358741   -2.047651    1.364329
     29          8           0       -3.979284   -2.129803   -0.177191
     30          6           0       -5.005296   -2.593274    0.657383
     31          9           0       -5.949517   -1.642787    0.761019
     32          9           0       -5.557855   -3.683134    0.091780
     33          9           0       -4.545955   -2.923214    1.873922
     34          6           0       -3.644949   -0.074343    1.241570
     35          9           0       -4.386782    0.721279    0.446325
     36          9           0       -4.459084   -0.487399    2.244571
     37          9           0       -2.693111    0.677591    1.840198
     38          6           0       -1.004194    1.406687   -0.183606
     39          8           0       -2.067653    1.996043   -0.354940
     40          1           0        1.500803    4.795291   -2.773312
     41          1           0        1.722474    3.135950   -2.224807
     42          1           0        2.320921    4.484571   -1.234663
     43          1           0       -0.073589    5.292394   -1.027744
     44          1           0       -0.613979    3.821191   -1.829715
     45          1           0       -0.773115    3.849242    0.707039
     46          1           0        0.979633    3.885298    0.815931
     47          1           0        2.132947    1.969280    0.654017
     48          1           0        1.725675    1.301246   -0.958531
 ---------------------------------------------------------------------

 SCF Done:  E(UCAM-B3LYP) =  -2800.09241020     A.U. after   25 cycles

 Alpha  occ. eigenvalues --  -24.87606 -24.87409 -24.87407 -24.87269 -24.86449
 Alpha  occ. eigenvalues --  -24.86111 -24.85852 -24.85275 -24.85251 -24.85193
 Alpha  occ. eigenvalues --  -24.85154 -24.85114 -24.85092 -24.85057 -24.85037
 Alpha  occ. eigenvalues --  -24.85004 -24.84787 -24.84679 -19.34924 -19.34862
 Alpha  occ. eigenvalues --  -19.34761 -19.28319 -14.66133 -14.58898 -14.56233
 Alpha  occ. eigenvalues --  -10.61175 -10.61095 -10.58860 -10.58348 -10.57106
 Alpha  occ. eigenvalues --  -10.56931 -10.53924 -10.51973 -10.51918 -10.50741
 Alpha  occ. eigenvalues --  -10.45902 -10.40440 -10.33927 -10.30142  -1.45784
 Alpha  occ. eigenvalues --   -1.45326  -1.44378  -1.44135  -1.42628  -1.41914
 Alpha  occ. eigenvalues --   -1.38064  -1.37481  -1.36533  -1.36319  -1.35810
 Alpha  occ. eigenvalues --   -1.35072  -1.35070  -1.35019  -1.34938  -1.34571
 Alpha  occ. eigenvalues --   -1.34313  -1.34168  -1.30338  -1.24541  -1.22683
 Alpha  occ. eigenvalues --   -1.22323  -1.20941  -1.15107  -1.13263  -0.97886
 Alpha  occ. eigenvalues --   -0.96912  -0.95935  -0.93255  -0.89479  -0.88483
 Alpha  occ. eigenvalues --   -0.85608  -0.85226  -0.83302  -0.82669  -0.79903
 Alpha  occ. eigenvalues --   -0.79199  -0.78778  -0.77072  -0.75817  -0.75440
 Alpha  occ. eigenvalues --   -0.74764  -0.74378  -0.73784  -0.73056  -0.72452
 Alpha  occ. eigenvalues --   -0.72413  -0.71745  -0.71471  -0.71210  -0.71164
 Alpha  occ. eigenvalues --   -0.70789  -0.69805  -0.68936  -0.68870  -0.68828
 Alpha  occ. eigenvalues --   -0.68324  -0.67470  -0.66630  -0.65627  -0.63714
 Alpha  occ. eigenvalues --   -0.62643  -0.62383  -0.62218  -0.60862  -0.60625
 Alpha  occ. eigenvalues --   -0.59894  -0.59615  -0.59474  -0.59227  -0.59134
 Alpha  occ. eigenvalues --   -0.59050  -0.58609  -0.58368  -0.58034  -0.57947
 Alpha  occ. eigenvalues --   -0.57635  -0.57412  -0.57170  -0.57064  -0.56663
 Alpha  occ. eigenvalues --   -0.56382  -0.55859  -0.55725  -0.55184  -0.54988
 Alpha  occ. eigenvalues --   -0.54904  -0.54792  -0.54582  -0.54167  -0.53907
 Alpha  occ. eigenvalues --   -0.53830  -0.53540  -0.53353  -0.52984  -0.52892
 Alpha  occ. eigenvalues --   -0.52483  -0.52294  -0.52224  -0.51556  -0.51465
 Alpha  occ. eigenvalues --   -0.51249  -0.51045  -0.50694  -0.48854  -0.48175
 Alpha  occ. eigenvalues --   -0.47934  -0.47577  -0.47296  -0.46775  -0.46456
 Alpha  occ. eigenvalues --   -0.46329  -0.45252  -0.42659  -0.41509
 Alpha virt. eigenvalues --   -0.06383  -0.00552   0.02115   0.02775   0.03889
 Alpha virt. eigenvalues --    0.05475   0.06148   0.07649   0.09082   0.09967
 Alpha virt. eigenvalues --    0.10573   0.11525   0.12279   0.13510   0.13842

  Beta  occ. eigenvalues --  -24.87605 -24.87408 -24.87398 -24.87267 -24.86448
  Beta  occ. eigenvalues --  -24.86109 -24.85852 -24.85269 -24.85251 -24.85193
  Beta  occ. eigenvalues --  -24.85154 -24.85114 -24.85092 -24.85057 -24.85037
  Beta  occ. eigenvalues --  -24.85004 -24.84787 -24.84679 -19.34924 -19.34862
  Beta  occ. eigenvalues --  -19.34100 -19.28332 -14.64658 -14.58912 -14.56187
  Beta  occ. eigenvalues --  -10.61175 -10.61095 -10.58860 -10.58348 -10.57107
  Beta  occ. eigenvalues --  -10.56930 -10.54157 -10.51974 -10.51918 -10.50740
  Beta  occ. eigenvalues --  -10.45935 -10.40427 -10.33761 -10.30136  -1.45783
  Beta  occ. eigenvalues --   -1.45321  -1.44378  -1.44132  -1.42621  -1.41911
  Beta  occ. eigenvalues --   -1.38063  -1.37481  -1.36531  -1.36305  -1.35809
  Beta  occ. eigenvalues --   -1.35070  -1.35062  -1.35016  -1.34938  -1.34571
  Beta  occ. eigenvalues --   -1.34310  -1.34167  -1.29302  -1.24168  -1.22662
  Beta  occ. eigenvalues --   -1.22316  -1.19072  -1.14905  -1.12516  -0.97687
  Beta  occ. eigenvalues --   -0.96804  -0.95531  -0.92877  -0.89319  -0.88247
  Beta  occ. eigenvalues --   -0.85561  -0.85204  -0.83130  -0.82562  -0.79819
  Beta  occ. eigenvalues --   -0.79012  -0.78478  -0.76900  -0.75700  -0.75296
  Beta  occ. eigenvalues --   -0.74534  -0.74055  -0.73502  -0.73044  -0.72331
  Beta  occ. eigenvalues --   -0.71742  -0.71604  -0.71206  -0.71161  -0.70782
  Beta  occ. eigenvalues --   -0.70589  -0.69705  -0.68883  -0.68758  -0.68435
  Beta  occ. eigenvalues --   -0.68239  -0.67324  -0.66121  -0.65046  -0.62794
  Beta  occ. eigenvalues --   -0.62469  -0.61980  -0.61673  -0.60556  -0.60253
  Beta  occ. eigenvalues --   -0.59666  -0.59375  -0.59289  -0.59169  -0.59024
  Beta  occ. eigenvalues --   -0.58890  -0.58580  -0.58284  -0.58009  -0.57780
  Beta  occ. eigenvalues --   -0.57566  -0.57286  -0.57104  -0.56777  -0.56607
  Beta  occ. eigenvalues --   -0.56111  -0.55723  -0.55627  -0.55163  -0.54947
  Beta  occ. eigenvalues --   -0.54733  -0.54578  -0.54359  -0.54149  -0.53893
  Beta  occ. eigenvalues --   -0.53723  -0.53528  -0.53283  -0.52932  -0.52842
  Beta  occ. eigenvalues --   -0.52457  -0.52268  -0.52144  -0.51534  -0.51437
  Beta  occ. eigenvalues --   -0.51123  -0.51002  -0.48691  -0.48156  -0.47891
  Beta  occ. eigenvalues --   -0.47573  -0.47180  -0.47148  -0.46681  -0.46192
  Beta  occ. eigenvalues --   -0.44164  -0.42616  -0.41400
  Beta virt. eigenvalues --   -0.25799  -0.04872  -0.00228   0.02222   0.02792
  Beta virt. eigenvalues --    0.04021   0.05604   0.06309   0.07808   0.09436
  Beta virt. eigenvalues --    0.10450   0.10778   0.11779   0.12396   0.13630

 Mulliken charges and spin densities:
               1          2
     1  C   -0.342656   0.003452
     2  C   -0.209418   0.082222
     3  C   -0.124258  -0.007451
     4  N   -0.343601   0.670164
     5  C    0.086709  -0.032792
     6  N   -0.614484   0.017507
     7  C    0.758150   0.000362
     8  F   -0.265000   0.000223
     9  F   -0.249034   0.001542
    10  C    0.434546  -0.000245
    11  F   -0.263294  -0.000032
    12  O   -0.478976   0.000006
    13  C    0.996244   0.000002
    14  F   -0.246167  -0.000001
    15  F   -0.233793   0.000001
    16  F   -0.243779   0.000002
    17  C    0.812566  -0.000141
    18  F   -0.246691   0.000299
    19  F   -0.241150   0.000025
    20  F   -0.245750   0.000167
    21  C    0.860334   0.000947
    22  O   -0.457198  -0.004867
    23  N   -0.647784  -0.000725
    24  C    0.751517  -0.000231
    25  F   -0.244611   0.000288
    26  F   -0.258779  -0.000060
    27  C    0.443448  -0.000023
    28  F   -0.245829   0.000107
    29  O   -0.509373   0.000066
    30  C    1.001097   0.000006
    31  F   -0.244152   0.000003
    32  F   -0.236046   0.000013
    33  F   -0.241032   0.000009
    34  C    0.816680  -0.000172
    35  F   -0.231606   0.000502
    36  F   -0.247877   0.000090
    37  F   -0.253251   0.001977
    38  C    0.871035  -0.132901
    39  O   -0.380987   0.261146
    40  H    0.163067   0.009533
    41  H    0.119391  -0.000115
    42  H    0.139411   0.001158
    43  H    0.186918   0.006007
    44  H    0.167143  -0.003465
    45  H    0.234686   0.030701
    46  H    0.211709   0.008795
    47  H    0.245615   0.016900
    48  H    0.246312   0.068998
 Sum of Mulliken charges =   1.00000   1.00000

 Dipole moment (field-independent basis, Debye):
    X=              3.9910    Y=             13.8513    Z=             -1.1792  Tot=             14.4629
 Quadrupole moment (field-independent basis, Debye-Ang):
   XX=           -199.3389   YY=           -162.9880   ZZ=           -202.6452
   XY=              9.2175   XZ=             -4.2223   YZ=             -2.3236

 Normal termination of Gaussian 09 at Sun Mar  3 18:26:23 2024.
