 Gaussian 09, Revision D.01,
 Gaussian 09:  ES64L-G09RevD.01 24-Apr-2013

 ----------------------------------------------------------------------
 #p CAM-B3LYP/6-31G(d,p) SCRF=(PCM,Solvent=Generic,Read) NoSymm out=wfn
 ----------------------------------------------------------------------

 -------------------
 Title A1303169711_0
 -------------------
 Symbolic Z-matrix:
 Charge =  0 Multiplicity = 1

                          Input orientation:
 ---------------------------------------------------------------------
 Center     Atomic      Atomic             Coordinates (Angstroms)
 Number     Number       Type             X           Y           Z
 ---------------------------------------------------------------------
      1          6           0        1.507388    4.152387   -1.886993
      2          6           0        0.164865    4.232348   -1.177876
      3          6           0        0.146189    3.545615    0.190617
      4          7           0        0.151009    2.083853    0.139908
      5          6           0        1.402261    1.390770    0.082548
      6          7           0        1.268083    0.078497    0.631161
      7          6           0        2.446914   -0.558049    1.208683
      8          9           0        3.433051    0.392139    1.276455
      9          9           0        2.159876   -0.820378    2.518233
     10          6           0        3.079426   -1.827369    0.558810
     11          9           0        4.306667   -2.008435    1.154205
     12          8           0        2.341930   -2.998961    0.894475
     13          6           0        2.706729   -4.119567    0.141537
     14          9           0        2.227094   -3.992417   -1.107406
     15          9           0        2.173830   -5.219853    0.702395
     16          9           0        4.042579   -4.255450    0.103365
     17          6           0        3.297549   -1.480426   -0.916612
     18          9           0        3.944663   -0.299384   -1.069657
     19          9           0        4.034207   -2.408219   -1.566109
     20          9           0        2.128420   -1.360996   -1.588542
     21          6           0        0.136173   -0.641167    0.365176
     22          8           0        0.065358   -1.828160    0.657409
     23          7           0       -0.894441    0.036511   -0.244134
     24          6           0       -2.073452   -0.727571   -0.610095
     25          9           0       -2.799977   -0.046179   -1.549504
     26          9           0       -1.624295   -1.815821   -1.326992
     27          6           0       -3.041446   -1.258180    0.485369
     28          9           0       -2.358741   -2.047651    1.364329
     29          8           0       -3.979284   -2.129803   -0.177191
     30          6           0       -5.005296   -2.593274    0.657383
     31          9           0       -5.949517   -1.642787    0.761019
     32          9           0       -5.557855   -3.683134    0.091780
     33          9           0       -4.545955   -2.923214    1.873922
     34          6           0       -3.644949   -0.074343    1.241570
     35          9           0       -4.386782    0.721279    0.446325
     36          9           0       -4.459084   -0.487399    2.244571
     37          9           0       -2.693111    0.677591    1.840198
     38          6           0       -1.004194    1.406687   -0.183606
     39          8           0       -2.067653    1.996043   -0.354940
     40          1           0        1.500803    4.795291   -2.773312
     41          1           0        1.722474    3.135950   -2.224807
     42          1           0        2.320921    4.484571   -1.234663
     43          1           0       -0.073589    5.292394   -1.027744
     44          1           0       -0.613979    3.821191   -1.829715
     45          1           0       -0.773115    3.849242    0.707039
     46          1           0        0.979633    3.885298    0.815931
     47          1           0        2.132947    1.969280    0.654017
     48          1           0        1.725675    1.301246   -0.958531
 ---------------------------------------------------------------------

 SCF Done:  E(RCAM-B3LYP) =  -2800.38473297     A.U. after   13 cycles

 Alpha  occ. eigenvalues --  -24.84435 -24.84407 -24.83638 -24.83541 -24.83507
 Alpha  occ. eigenvalues --  -24.83330 -24.83297 -24.83233 -24.83200 -24.83067
 Alpha  occ. eigenvalues --  -24.82814 -24.82806 -24.82445 -24.82439 -24.82157
 Alpha  occ. eigenvalues --  -24.81986 -24.81594 -24.81093 -19.32386 -19.32324
 Alpha  occ. eigenvalues --  -19.22686 -19.21400 -14.51481 -14.49688 -14.46734
 Alpha  occ. eigenvalues --  -10.59215 -10.59076 -10.56147 -10.55094 -10.52675
 Alpha  occ. eigenvalues --  -10.52433 -10.48961 -10.48454 -10.44881 -10.43111
 Alpha  occ. eigenvalues --  -10.36445 -10.30897 -10.26265 -10.25272  -1.43290
 Alpha  occ. eigenvalues --   -1.42779  -1.42290  -1.41444  -1.38851  -1.37657
 Alpha  occ. eigenvalues --   -1.34988  -1.34904  -1.33698  -1.33393  -1.33165
 Alpha  occ. eigenvalues --   -1.33022  -1.32947  -1.32738  -1.32538  -1.31818
 Alpha  occ. eigenvalues --   -1.31356  -1.30119  -1.20667  -1.20139  -1.19710
 Alpha  occ. eigenvalues --   -1.15889  -1.09855  -1.07415  -1.03480  -0.93551
 Alpha  occ. eigenvalues --   -0.92762  -0.87939  -0.85056  -0.84021  -0.82397
 Alpha  occ. eigenvalues --   -0.82238  -0.80826  -0.78703  -0.77777  -0.75556
 Alpha  occ. eigenvalues --   -0.75108  -0.73434  -0.72808  -0.72364  -0.71415
 Alpha  occ. eigenvalues --   -0.70652  -0.70118  -0.70095  -0.69662  -0.69627
 Alpha  occ. eigenvalues --   -0.69089  -0.68870  -0.68307  -0.67090  -0.66750
 Alpha  occ. eigenvalues --   -0.66586  -0.66125  -0.65570  -0.64962  -0.63816
 Alpha  occ. eigenvalues --   -0.63057  -0.62102  -0.59753  -0.59239  -0.58225
 Alpha  occ. eigenvalues --   -0.57943  -0.57322  -0.57108  -0.56793  -0.56615
 Alpha  occ. eigenvalues --   -0.56488  -0.56265  -0.55804  -0.55677  -0.55389
 Alpha  occ. eigenvalues --   -0.55153  -0.54791  -0.54607  -0.54049  -0.53704
 Alpha  occ. eigenvalues --   -0.53496  -0.53204  -0.53016  -0.52875  -0.52563
 Alpha  occ. eigenvalues --   -0.52521  -0.52401  -0.52227  -0.51745  -0.51656
 Alpha  occ. eigenvalues --   -0.51300  -0.51154  -0.50884  -0.50870  -0.50471
 Alpha  occ. eigenvalues --   -0.50300  -0.50198  -0.49945  -0.49736  -0.49548
 Alpha  occ. eigenvalues --   -0.49428  -0.49087  -0.48765  -0.48501  -0.48193
 Alpha  occ. eigenvalues --   -0.47736  -0.47301  -0.45402  -0.45181  -0.44533
 Alpha  occ. eigenvalues --   -0.43884  -0.42507  -0.41279  -0.40996  -0.38564
 Alpha  occ. eigenvalues --   -0.37174  -0.36317  -0.35413  -0.32604
 Alpha virt. eigenvalues --    0.02523   0.05498   0.06296   0.07304   0.08397
 Alpha virt. eigenvalues --    0.09576   0.12121   0.13517   0.14614   0.15952
 Alpha virt. eigenvalues --    0.16279   0.16642   0.17212   0.18780   0.19527

 Mulliken charges:
               1
     1  C   -0.330503
     2  C   -0.182548
     3  C   -0.062386
     4  N   -0.521561
     5  C    0.124521
     6  N   -0.600852
     7  C    0.751309
     8  F   -0.273734
     9  F   -0.262952
    10  C    0.426115
    11  F   -0.273996
    12  O   -0.478427
    13  C    0.991466
    14  F   -0.247473
    15  F   -0.238131
    16  F   -0.247613
    17  C    0.814366
    18  F   -0.248127
    19  F   -0.249417
    20  F   -0.243722
    21  C    0.830598
    22  O   -0.504108
    23  N   -0.646559
    24  C    0.749879
    25  F   -0.254341
    26  F   -0.275478
    27  C    0.432889
    28  F   -0.253180
    29  O   -0.515963
    30  C    0.995895
    31  F   -0.246936
    32  F   -0.241271
    33  F   -0.243688
    34  C    0.817705
    35  F   -0.235740
    36  F   -0.258198
    37  F   -0.248291
    38  C    0.820980
    39  O   -0.538436
    40  H    0.117354
    41  H    0.108218
    42  H    0.108515
    43  H    0.115268
    44  H    0.125153
    45  H    0.145710
    46  H    0.129029
    47  H    0.172464
    48  H    0.146200
 Sum of Mulliken charges =   0.00000

 Dipole moment (field-independent basis, Debye):
    X=              4.2574    Y=              4.9648    Z=             -0.6447  Tot=              6.5719
 Quadrupole moment (field-independent basis, Debye-Ang):
   XX=           -217.9790   YY=           -203.8288   ZZ=           -210.9274
   XY=              8.5572   XZ=             -3.7384   YZ=              2.1549

 Normal termination of Gaussian 09 at Sun Mar  3 18:25:07 2024.
