 Gaussian 09, Revision D.01,
 Gaussian 09:  ES64L-G09RevD.01 24-Apr-2013

 ----------------------------------------------------------------------
 #p CAM-B3LYP/6-31G(d,p) SCRF=(PCM,Solvent=Generic,Read) NoSymm out=wfn
 ----------------------------------------------------------------------

 -----------------
 Title DIPEDA1_neu
 -----------------
 Symbolic Z-matrix:
 Charge =  0 Multiplicity = 1

                          Input orientation:
 ---------------------------------------------------------------------
 Center     Atomic      Atomic             Coordinates (Angstroms)
 Number     Number       Type             X           Y           Z
 ---------------------------------------------------------------------
      1          9           0        2.737526   -2.573413    2.202880
      2          6           0        3.354669   -1.428027    1.852215
      3          9           0        4.345999   -1.216272    2.737237
      4          6           0        3.830560   -1.424675    0.416910
      5          9           0        4.933181   -2.147357    0.174934
      6          9           0        2.847036   -1.958701   -0.361885
      7          6           0        3.949565    0.038794    0.106748
      8          9           0        3.734549    0.256341   -1.218171
      9          6           0        5.295811    0.642086    0.465733
     10          9           0        5.527603    0.526753    1.800481
     11          6           0        6.421068    0.012748   -0.358784
     12          8           0        7.268120   -0.748461    0.370987
     13          8           0        6.600557    0.125829   -1.561571
     14          9           0        5.247285    1.987604    0.225175
     15          6           0        2.817923    0.612548    0.967154
     16          9           0        3.296275    1.674483    1.685060
     17          6           0        1.602140    1.137700    0.177755
     18          9           0        0.743498    1.737353    1.068070
     19          6           0        0.856408    0.024921   -0.570382
     20          7           0       -0.034153   -0.692627    0.213467
     21          6           0       -0.937723   -1.659522   -0.391953
     22          6           0       -2.146134   -0.977346   -1.062918
     23          7           0       -2.815730   -0.038071   -0.114423
     24          6           0       -2.736671    1.347340   -0.646546
     25          6           0       -2.664700    2.408270    0.458469
     26          6           0       -3.781573    1.702364   -1.709072
     27          6           0       -4.150133   -0.542531    0.307094
     28          6           0       -4.033527   -1.918573    0.996865
     29          6           0       -4.900066    0.363993    1.294600
     30          8           0        1.058214   -0.246554   -1.751500
     31          9           0        2.002095    2.139704   -0.658400
     32          8           0        2.435510   -0.350233    1.974440
     33          1           0        7.940517   -1.067295   -0.269490
     34          1           0       -0.439633   -0.189331    1.000615
     35          1           0       -0.388355   -2.253550   -1.130171
     36          1           0       -1.261193   -2.330540    0.409295
     37          1           0       -2.834222   -1.736070   -1.454534
     38          1           0       -1.784924   -0.456674   -1.959355
     39          1           0       -1.758816    1.450604   -1.137636
     40          1           0       -2.267893    3.344177    0.048091
     41          1           0       -1.987077    2.095046    1.260529
     42          1           0       -3.634365    2.647400    0.897616
     43          1           0       -3.563845    2.687022   -2.138508
     44          1           0       -3.771743    0.978761   -2.530869
     45          1           0       -4.796325    1.741324   -1.304779
     46          1           0       -4.787771   -0.667642   -0.578021
     47          1           0       -5.013132   -2.259698    1.352035
     48          1           0       -3.362802   -1.871196    1.862133
     49          1           0       -3.668460   -2.697005    0.321283
     50          1           0       -5.256900    1.280502    0.821121
     51          1           0       -4.273013    0.624353    2.154175
     52          1           0       -5.795231   -0.136656    1.682532
 ---------------------------------------------------------------------

 SCF Done:  E(RCAM-B3LYP) =  -2029.83741155     A.U. after   13 cycles

 Alpha  occ. eigenvalues --  -24.84478 -24.83215 -24.82964 -24.82570 -24.82379
 Alpha  occ. eigenvalues --  -24.82314 -24.81718 -24.81692 -24.81157 -24.80995
 Alpha  occ. eigenvalues --  -19.31834 -19.29856 -19.25281 -19.21666 -14.44461
 Alpha  occ. eigenvalues --  -14.39867 -10.52814 -10.49089 -10.49086 -10.47295
 Alpha  occ. eigenvalues --  -10.46797 -10.44253 -10.42694 -10.39348 -10.29561
 Alpha  occ. eigenvalues --  -10.29149 -10.28717 -10.28398 -10.24872 -10.24719
 Alpha  occ. eigenvalues --  -10.24538 -10.24025  -1.40855  -1.38576  -1.38041
 Alpha  occ. eigenvalues --   -1.36842  -1.34713  -1.33548  -1.33025  -1.32108
 Alpha  occ. eigenvalues --   -1.30835  -1.30050  -1.21877  -1.20014  -1.13658
 Alpha  occ. eigenvalues --   -1.12107  -1.01788  -0.99116  -0.97492  -0.90637
 Alpha  occ. eigenvalues --   -0.87976  -0.86705  -0.85317  -0.82690  -0.79830
 Alpha  occ. eigenvalues --   -0.77905  -0.76578  -0.76150  -0.75923  -0.73551
 Alpha  occ. eigenvalues --   -0.72447  -0.70542  -0.70364  -0.69335  -0.68170
 Alpha  occ. eigenvalues --   -0.67962  -0.67231  -0.66502  -0.66280  -0.65432
 Alpha  occ. eigenvalues --   -0.64993  -0.64176  -0.63578  -0.62569  -0.61623
 Alpha  occ. eigenvalues --   -0.61300  -0.58428  -0.57733  -0.56599  -0.56376
 Alpha  occ. eigenvalues --   -0.55895  -0.55589  -0.55155  -0.54908  -0.54500
 Alpha  occ. eigenvalues --   -0.53966  -0.53623  -0.53411  -0.53000  -0.52775
 Alpha  occ. eigenvalues --   -0.52689  -0.52151  -0.51943  -0.51745  -0.51503
 Alpha  occ. eigenvalues --   -0.51127  -0.50871  -0.50729  -0.49933  -0.49436
 Alpha  occ. eigenvalues --   -0.48849  -0.48693  -0.48599  -0.47878  -0.47799
 Alpha  occ. eigenvalues --   -0.46801  -0.46452  -0.46254  -0.45529  -0.44975
 Alpha  occ. eigenvalues --   -0.44707  -0.44260  -0.43696  -0.43354  -0.42543
 Alpha  occ. eigenvalues --   -0.42470  -0.41276  -0.40928  -0.40399  -0.39996
 Alpha  occ. eigenvalues --   -0.38071  -0.37482  -0.37398  -0.34583  -0.32573
 Alpha  occ. eigenvalues --   -0.27447
 Alpha virt. eigenvalues --   -0.00071   0.02369   0.04245   0.07937   0.11326
 Alpha virt. eigenvalues --    0.11556   0.12121   0.13562   0.14292   0.14724
 Alpha virt. eigenvalues --    0.14891   0.15530   0.16856   0.17650   0.18860

 Mulliken charges:
               1
     1  F   -0.247320
     2  C    0.749139
     3  F   -0.237588
     4  C    0.551103
     5  F   -0.246947
     6  F   -0.256737
     7  C    0.130295
     8  F   -0.266897
     9  C    0.638046
    10  F   -0.267185
    11  C    0.516366
    12  O   -0.471107
    13  O   -0.439277
    14  F   -0.275713
    15  C    0.491064
    16  F   -0.278689
    17  C    0.577478
    18  F   -0.280980
    19  C    0.502081
    20  N   -0.517851
    21  C   -0.044476
    22  C   -0.064357
    23  N   -0.450427
    24  C    0.058929
    25  C   -0.310764
    26  C   -0.320108
    27  C    0.091376
    28  C   -0.321308
    29  C   -0.324916
    30  O   -0.502990
    31  F   -0.267668
    32  O   -0.491424
    33  H    0.359915
    34  H    0.289335
    35  H    0.134175
    36  H    0.118435
    37  H    0.103016
    38  H    0.123853
    39  H    0.102532
    40  H    0.101567
    41  H    0.100066
    42  H    0.101997
    43  H    0.108393
    44  H    0.105977
    45  H    0.106398
    46  H    0.080312
    47  H    0.106445
    48  H    0.108903
    49  H    0.101983
    50  H    0.106788
    51  H    0.113709
    52  H    0.105054
 Sum of Mulliken charges =   0.00000

 Dipole moment (field-independent basis, Debye):
    X=             -2.1044    Y=             -2.3496    Z=              1.3847  Tot=              3.4447
 Quadrupole moment (field-independent basis, Debye-Ang):
   XX=           -153.6792   YY=           -178.9759   ZZ=           -191.9791
   XY=             -9.3576   XZ=              4.2121   YZ=              0.3965

 Normal termination of Gaussian 09 at Mon Feb  3 21:50:33 2025.
