 Gaussian 09, Revision D.01,
 Gaussian 09:  ES64L-G09RevD.01 24-Apr-2013

 ----------------------------------------------------------------------
 #p CAM-B3LYP/6-31G(d,p) SCRF=(PCM,Solvent=Generic,Read) NoSymm out=wfn
 ----------------------------------------------------------------------

 --------------------
 Title A1528681612_p1
 --------------------
 Symbolic Z-matrix:
 Charge =  1 Multiplicity = 2

                          Input orientation:
 ---------------------------------------------------------------------
 Center     Atomic      Atomic             Coordinates (Angstroms)
 Number     Number       Type             X           Y           Z
 ---------------------------------------------------------------------
      1          6           0        0.824553   -3.655200   -2.138256
      2          6           0       -0.008598   -3.470234   -1.293009
      3          6           0       -1.027080   -3.237176   -0.254380
      4          7           0       -1.209760   -1.810492   -0.027771
      5          6           0       -2.125276   -1.143248   -0.812039
      6          8           0       -2.849825   -1.728154   -1.618239
      7          7           0       -2.162201    0.227761   -0.656891
      8          6           0       -3.017955    1.000191   -1.556532
      9          6           0       -2.319843    1.316801   -2.872298
     10          6           0       -1.315153    0.912566    0.189780
     11          8           0       -1.185417    2.133765    0.118295
     12          7           0       -0.612625    0.154463    1.090575
     13          6           0        0.275697    0.857892    2.004143
     14          9           0       -0.392248    1.932455    2.516438
     15          9           0        0.487663    0.075033    3.102764
     16          6           0        1.634670    1.304326    1.402501
     17          9           0        1.413948    2.240160    0.433145
     18          8           0        2.249882    0.202260    0.725874
     19          6           0        3.581777    0.446235    0.361334
     20          9           0        4.369084    0.324865    1.441892
     21          9           0        3.720691    1.666522   -0.179087
     22          9           0        3.951169   -0.473976   -0.548881
     23          6           0        2.406374    1.936302    2.569537
     24          9           0        2.748389    1.021447    3.504409
     25          9           0        3.561274    2.508181    2.148785
     26          9           0        1.712306    2.912150    3.194572
     27          6           0       -0.393289   -1.185676    0.890038
     28          8           0        0.496291   -1.799200    1.479700
     29          1           0        1.565213   -3.820641   -2.886921
     30          1           0       -1.976659   -3.693433   -0.555828
     31          1           0       -0.724556   -3.725123    0.679226
     32          1           0       -3.937438    0.438618   -1.757248
     33          1           0       -3.313627    1.934556   -1.065687
     34          1           0       -1.407957    1.899399   -2.706190
     35          1           0       -2.981881    1.896198   -3.523061
     36          1           0       -2.037593    0.400409   -3.400689
 ---------------------------------------------------------------------

 SCF Done:  E(UCAM-B3LYP) =  -1824.88423324     A.U. after   33 cycles

 Alpha  occ. eigenvalues --  -24.85610 -24.85437 -24.85186 -24.84860 -24.84765
 Alpha  occ. eigenvalues --  -24.84749 -24.84616 -24.84490 -24.84164 -19.35181
 Alpha  occ. eigenvalues --  -19.27933 -19.27511 -19.26190 -14.56015 -14.55565
 Alpha  occ. eigenvalues --  -14.53073 -10.61550 -10.56951 -10.55473 -10.50954
 Alpha  occ. eigenvalues --  -10.49786 -10.48622 -10.48035 -10.47770 -10.47166
 Alpha  occ. eigenvalues --  -10.44192 -10.33682 -10.27933  -1.45084  -1.43270
 Alpha  occ. eigenvalues --   -1.40940  -1.37482  -1.35313  -1.35231  -1.34341
 Alpha  occ. eigenvalues --   -1.33591  -1.33343  -1.26075  -1.22722  -1.20961
 Alpha  occ. eigenvalues --   -1.20506  -1.12895  -1.11628  -1.09333  -1.04680
 Alpha  occ. eigenvalues --   -0.95758  -0.94020  -0.89137  -0.87033  -0.84040
 Alpha  occ. eigenvalues --   -0.82370  -0.81434  -0.78659  -0.77374  -0.76364
 Alpha  occ. eigenvalues --   -0.75162  -0.74652  -0.73714  -0.72259  -0.71547
 Alpha  occ. eigenvalues --   -0.70423  -0.70093  -0.69646  -0.68793  -0.68167
 Alpha  occ. eigenvalues --   -0.66757  -0.66470  -0.63249  -0.62890  -0.61768
 Alpha  occ. eigenvalues --   -0.60120  -0.59470  -0.59161  -0.58807  -0.57999
 Alpha  occ. eigenvalues --   -0.57859  -0.57386  -0.56951  -0.56799  -0.56764
 Alpha  occ. eigenvalues --   -0.56493  -0.55603  -0.55280  -0.55100  -0.54135
 Alpha  occ. eigenvalues --   -0.54105  -0.53380  -0.53336  -0.52842  -0.52465
 Alpha  occ. eigenvalues --   -0.52175  -0.51913  -0.51721  -0.51605  -0.50723
 Alpha  occ. eigenvalues --   -0.50436  -0.49149  -0.47852  -0.47188  -0.46588
 Alpha  occ. eigenvalues --   -0.44603  -0.43719  -0.42757  -0.41963  -0.41189
 Alpha  occ. eigenvalues --   -0.39171  -0.38627
 Alpha virt. eigenvalues --   -0.06515  -0.05447  -0.02457  -0.01359   0.03731
 Alpha virt. eigenvalues --    0.06224   0.07814   0.08610   0.10787   0.11496
 Alpha virt. eigenvalues --    0.12824   0.13708   0.14622   0.15462   0.16365

  Beta  occ. eigenvalues --  -24.85610 -24.85437 -24.85186 -24.84860 -24.84765
  Beta  occ. eigenvalues --  -24.84749 -24.84616 -24.84490 -24.84164 -19.35181
  Beta  occ. eigenvalues --  -19.27890 -19.27466 -19.26191 -14.56021 -14.55560
  Beta  occ. eigenvalues --  -14.53056 -10.61550 -10.56951 -10.55473 -10.50954
  Beta  occ. eigenvalues --  -10.49791 -10.48626 -10.48037 -10.47192 -10.46336
  Beta  occ. eigenvalues --  -10.44161 -10.33682 -10.27931  -1.45084  -1.43270
  Beta  occ. eigenvalues --   -1.40939  -1.37482  -1.35313  -1.35231  -1.34341
  Beta  occ. eigenvalues --   -1.33591  -1.33343  -1.26048  -1.22719  -1.20891
  Beta  occ. eigenvalues --   -1.20481  -1.12814  -1.11547  -1.09262  -1.01314
  Beta  occ. eigenvalues --   -0.95613  -0.93218  -0.89083  -0.87010  -0.84036
  Beta  occ. eigenvalues --   -0.82307  -0.81365  -0.78599  -0.77263  -0.76204
  Beta  occ. eigenvalues --   -0.74715  -0.74261  -0.73703  -0.72259  -0.71530
  Beta  occ. eigenvalues --   -0.70376  -0.70075  -0.69373  -0.68687  -0.68123
  Beta  occ. eigenvalues --   -0.66701  -0.66425  -0.63053  -0.61772  -0.60648
  Beta  occ. eigenvalues --   -0.59974  -0.59446  -0.59131  -0.58801  -0.57986
  Beta  occ. eigenvalues --   -0.57842  -0.57364  -0.56911  -0.56733  -0.56632
  Beta  occ. eigenvalues --   -0.56096  -0.55580  -0.55205  -0.54941  -0.54122
  Beta  occ. eigenvalues --   -0.54057  -0.53366  -0.53253  -0.52446  -0.52171
  Beta  occ. eigenvalues --   -0.51777  -0.51607  -0.50814  -0.50712  -0.50433
  Beta  occ. eigenvalues --   -0.49109  -0.47844  -0.47177  -0.46584  -0.44594
  Beta  occ. eigenvalues --   -0.43507  -0.42680  -0.41847  -0.41052  -0.39000
  Beta  occ. eigenvalues --   -0.38555
  Beta virt. eigenvalues --   -0.28805  -0.04684  -0.02493  -0.01295  -0.00703
  Beta virt. eigenvalues --    0.03736   0.06440   0.08459   0.08811   0.11082
  Beta virt. eigenvalues --    0.11638   0.13219   0.13787   0.14716   0.15463

 Mulliken charges and spin densities:
               1          2
     1  C   -0.045792   0.531806
     2  C    0.484691   0.377680
     3  C   -0.213094   0.007440
     4  N   -0.577623   0.000034
     5  C    0.844940  -0.002995
     6  O   -0.503467   0.016268
     7  N   -0.563168   0.007848
     8  C   -0.070099   0.000109
     9  C   -0.330347   0.000973
    10  C    0.832166  -0.000834
    11  O   -0.485213  -0.000435
    12  N   -0.637870   0.002257
    13  C    0.762561  -0.000076
    14  F   -0.252593   0.000001
    15  F   -0.252224   0.000032
    16  C    0.438318   0.000118
    17  F   -0.252616  -0.000002
    18  O   -0.514762   0.000166
    19  C    0.997020   0.000011
    20  F   -0.240044   0.000000
    21  F   -0.239894   0.000017
    22  F   -0.242465   0.000001
    23  C    0.816317   0.000025
    24  F   -0.244965   0.000002
    25  F   -0.257490   0.000016
    26  F   -0.241249   0.000000
    27  C    0.862777  -0.003814
    28  O   -0.490582   0.015803
    29  H    0.324221  -0.018415
    30  H    0.285317   0.034165
    31  H    0.283382   0.031560
    32  H    0.163728   0.000274
    33  H    0.165544  -0.000027
    34  H    0.133380  -0.000036
    35  H    0.140048   0.000096
    36  H    0.121147  -0.000069
 Sum of Mulliken charges =   1.00000   1.00000

 Dipole moment (field-independent basis, Debye):
    X=             -1.5564    Y=            -15.8645    Z=             -8.1452  Tot=             17.9011
 Quadrupole moment (field-independent basis, Debye-Ang):
   XX=           -137.6604   YY=            -95.1689   ZZ=           -133.9126
   XY=             -6.5382   XZ=             -9.6083   YZ=             21.2593

 Normal termination of Gaussian 09 at Sun Mar  3 17:37:42 2024.
