 Gaussian 09, Revision D.01,
 Gaussian 09:  ES64L-G09RevD.01 24-Apr-2013

 ----------------------------------------------------------------------
 #p CAM-B3LYP/6-31G(d,p) SCRF=(PCM,Solvent=Generic,Read) NoSymm out=wfn
 ----------------------------------------------------------------------

 -------------------
 Title A1528681612_0
 -------------------
 Symbolic Z-matrix:
 Charge =  0 Multiplicity = 1

                          Input orientation:
 ---------------------------------------------------------------------
 Center     Atomic      Atomic             Coordinates (Angstroms)
 Number     Number       Type             X           Y           Z
 ---------------------------------------------------------------------
      1          6           0        0.824553   -3.655200   -2.138256
      2          6           0       -0.008598   -3.470234   -1.293009
      3          6           0       -1.027080   -3.237176   -0.254380
      4          7           0       -1.209760   -1.810492   -0.027771
      5          6           0       -2.125276   -1.143248   -0.812039
      6          8           0       -2.849825   -1.728154   -1.618239
      7          7           0       -2.162201    0.227761   -0.656891
      8          6           0       -3.017955    1.000191   -1.556532
      9          6           0       -2.319843    1.316801   -2.872298
     10          6           0       -1.315153    0.912566    0.189780
     11          8           0       -1.185417    2.133765    0.118295
     12          7           0       -0.612625    0.154463    1.090575
     13          6           0        0.275697    0.857892    2.004143
     14          9           0       -0.392248    1.932455    2.516438
     15          9           0        0.487663    0.075033    3.102764
     16          6           0        1.634670    1.304326    1.402501
     17          9           0        1.413948    2.240160    0.433145
     18          8           0        2.249882    0.202260    0.725874
     19          6           0        3.581777    0.446235    0.361334
     20          9           0        4.369084    0.324865    1.441892
     21          9           0        3.720691    1.666522   -0.179087
     22          9           0        3.951169   -0.473976   -0.548881
     23          6           0        2.406374    1.936302    2.569537
     24          9           0        2.748389    1.021447    3.504409
     25          9           0        3.561274    2.508181    2.148785
     26          9           0        1.712306    2.912150    3.194572
     27          6           0       -0.393289   -1.185676    0.890038
     28          8           0        0.496291   -1.799200    1.479700
     29          1           0        1.565213   -3.820641   -2.886921
     30          1           0       -1.976659   -3.693433   -0.555828
     31          1           0       -0.724556   -3.725123    0.679226
     32          1           0       -3.937438    0.438618   -1.757248
     33          1           0       -3.313627    1.934556   -1.065687
     34          1           0       -1.407957    1.899399   -2.706190
     35          1           0       -2.981881    1.896198   -3.523061
     36          1           0       -2.037593    0.400409   -3.400689
 ---------------------------------------------------------------------

 SCF Done:  E(RCAM-B3LYP) =  -1825.19893284     A.U. after   13 cycles

 Alpha  occ. eigenvalues --  -24.83563 -24.83425 -24.83329 -24.83241 -24.82892
 Alpha  occ. eigenvalues --  -24.82619 -24.82575 -24.82567 -24.82542 -19.32905
 Alpha  occ. eigenvalues --  -19.23274 -19.23233 -19.22965 -14.52150 -14.50256
 Alpha  occ. eigenvalues --  -14.49555 -10.59495 -10.55260 -10.53005 -10.48806
 Alpha  occ. eigenvalues --  -10.45250 -10.45004 -10.44201 -10.34267 -10.31240
 Alpha  occ. eigenvalues --  -10.27491 -10.26690 -10.25717  -1.43145  -1.41617
 Alpha  occ. eigenvalues --   -1.38740  -1.35444  -1.33455  -1.33198  -1.32619
 Alpha  occ. eigenvalues --   -1.32016  -1.31261  -1.21927  -1.20451  -1.16809
 Alpha  occ. eigenvalues --   -1.16597  -1.08803  -1.06806  -1.05390  -0.93344
 Alpha  occ. eigenvalues --   -0.88818  -0.86191  -0.84094  -0.81899  -0.81194
 Alpha  occ. eigenvalues --   -0.78391  -0.77746  -0.75482  -0.73401  -0.73055
 Alpha  occ. eigenvalues --   -0.72534  -0.71339  -0.70316  -0.69487  -0.68411
 Alpha  occ. eigenvalues --   -0.67426  -0.66799  -0.66296  -0.64309  -0.62862
 Alpha  occ. eigenvalues --   -0.61779  -0.59808  -0.58849  -0.57512  -0.57043
 Alpha  occ. eigenvalues --   -0.56885  -0.56218  -0.55969  -0.55576  -0.55382
 Alpha  occ. eigenvalues --   -0.55217  -0.54711  -0.54207  -0.53936  -0.53693
 Alpha  occ. eigenvalues --   -0.53377  -0.52774  -0.52479  -0.52072  -0.51279
 Alpha  occ. eigenvalues --   -0.50886  -0.50502  -0.50274  -0.50258  -0.49875
 Alpha  occ. eigenvalues --   -0.49734  -0.49365  -0.48791  -0.48604  -0.46347
 Alpha  occ. eigenvalues --   -0.45636  -0.44851  -0.44407  -0.42173  -0.39671
 Alpha  occ. eigenvalues --   -0.39259  -0.37751  -0.36878  -0.35666  -0.35206
 Alpha  occ. eigenvalues --   -0.34720  -0.34099
 Alpha virt. eigenvalues --    0.01460   0.02283   0.05946   0.08016   0.09750
 Alpha virt. eigenvalues --    0.09987   0.12383   0.14248   0.15171   0.17019
 Alpha virt. eigenvalues --    0.17622   0.17987   0.18381   0.19343   0.19758

 Mulliken charges:
               1
     1  C   -0.420095
     2  C    0.274179
     3  C   -0.173919
     4  N   -0.566984
     5  C    0.830792
     6  O   -0.520826
     7  N   -0.564563
     8  C   -0.062298
     9  C   -0.329206
    10  C    0.824305
    11  O   -0.506036
    12  N   -0.637897
    13  C    0.759954
    14  F   -0.259525
    15  F   -0.256112
    16  C    0.437821
    17  F   -0.255424
    18  O   -0.505491
    19  C    0.996100
    20  F   -0.243769
    21  F   -0.243564
    22  F   -0.239502
    23  C    0.811942
    24  F   -0.246295
    25  F   -0.260428
    26  F   -0.244355
    27  C    0.846173
    28  O   -0.506227
    29  H    0.190849
    30  H    0.191740
    31  H    0.189914
    32  H    0.153829
    33  H    0.151397
    34  H    0.128920
    35  H    0.126915
    36  H    0.127681
 Sum of Mulliken charges =   0.00000

 Dipole moment (field-independent basis, Debye):
    X=             -1.9383    Y=             -0.9752    Z=             -1.6437  Tot=              2.7221
 Quadrupole moment (field-independent basis, Debye-Ang):
   XX=           -147.8851   YY=           -155.0502   ZZ=           -152.9874
   XY=             -2.2555   XZ=             -7.2707   YZ=             -3.1453

 Normal termination of Gaussian 09 at Sun Mar  3 17:37:13 2024.
