 Gaussian 09, Revision D.01,
 Gaussian 09:  ES64L-G09RevD.01 24-Apr-2013

 ----------------------------------------------------------------------
 #p CAM-B3LYP/6-31G(d,p) SCRF=(PCM,Solvent=Generic,Read) NoSymm out=wfn
 ----------------------------------------------------------------------

 --------------
 Title mXD1_neu
 --------------
 Symbolic Z-matrix:
 Charge =  0 Multiplicity = 1

                          Input orientation:
 ---------------------------------------------------------------------
 Center     Atomic      Atomic             Coordinates (Angstroms)
 Number     Number       Type             X           Y           Z
 ---------------------------------------------------------------------
      1          9           0       -3.446106    4.077183    1.290857
      2          6           0       -3.384764    2.733227    1.345776
      3          9           0       -3.340661    2.387566    2.650289
      4          6           0       -4.522574    2.041440    0.619763
      5          9           0       -5.673505    1.972987    1.307738
      6          9           0       -4.818052    2.722945   -0.526352
      7          6           0       -3.895435    0.715486    0.260491
      8          9           0       -4.565002    0.167029   -0.793342
      9          6           0       -3.905160   -0.259167    1.432803
     10          9           0       -2.964750    0.093105    2.347704
     11          6           0       -3.738473   -1.713878    0.974843
     12          8           0       -4.869969   -2.260759    0.474271
     13          8           0       -2.722148   -2.390177    1.027818
     14          9           0       -5.096181   -0.152164    2.095219
     15          6           0       -2.524789    1.251390   -0.169287
     16          9           0       -2.706431    1.905129   -1.360712
     17          6           0       -1.434802    0.205676   -0.383198
     18          9           0       -1.964711   -0.824355   -1.114976
     19          6           0       -0.201157    0.789429   -1.090097
     20          7           0        0.405902   -0.090908   -1.973078
     21          6           0        1.658974    0.213031   -2.626930
     22          6           0        2.803643   -0.470586   -1.926946
     23          6           0        3.316964    0.057694   -0.731384
     24          6           0        4.368527   -0.576455   -0.053581
     25          6           0        4.911548   -0.007527    1.231786
     26          7           0        4.541791   -0.834290    2.374264
     27          6           0        4.898509   -1.760539   -0.583885
     28          6           0        4.393581   -2.296095   -1.768065
     29          6           0        3.350292   -1.655703   -2.436741
     30          8           0        0.254080    1.906706   -0.858237
     31          9           0       -1.086526   -0.339589    0.814175
     32          8           0       -2.161465    2.285962    0.764526
     33          1           0       -4.634141   -3.188951    0.258025
     34          1           0        0.091889   -1.056066   -1.985780
     35          1           0        1.828863    1.294335   -2.665275
     36          1           0        1.575184   -0.139898   -3.660688
     37          1           0        2.886922    0.972954   -0.325376
     38          1           0        4.538387    1.011916    1.384756
     39          1           0        6.003582    0.063098    1.162116
     40          1           0        4.816927   -0.358923    3.231212
     41          1           0        3.525987   -0.911607    2.403335
     42          1           0        5.703582   -2.273963   -0.061805
     43          1           0        4.813176   -3.216547   -2.166454
     44          1           0        2.968489   -2.090142   -3.357384
 ---------------------------------------------------------------------

 SCF Done:  E(RCAM-B3LYP) =  -2025.02572474     A.U. after   14 cycles

 Alpha  occ. eigenvalues --  -24.83138 -24.82765 -24.82676 -24.82529 -24.82359
 Alpha  occ. eigenvalues --  -24.82066 -24.81993 -24.81937 -24.81927 -24.81464
 Alpha  occ. eigenvalues --  -19.31245 -19.30042 -19.25285 -19.22243 -14.45740
 Alpha  occ. eigenvalues --  -14.38133 -10.52165 -10.49460 -10.48346 -10.48034
 Alpha  occ. eigenvalues --  -10.46885 -10.44376 -10.42724 -10.40326 -10.30805
 Alpha  occ. eigenvalues --  -10.28092 -10.27458 -10.26979 -10.26676 -10.26537
 Alpha  occ. eigenvalues --  -10.26398 -10.26211  -1.40061  -1.38276  -1.37868
 Alpha  occ. eigenvalues --   -1.37488  -1.35297  -1.33738  -1.31916  -1.31768
 Alpha  occ. eigenvalues --   -1.31257  -1.30638  -1.21997  -1.19453  -1.14319
 Alpha  occ. eigenvalues --   -1.12167  -1.02486  -0.97094  -0.96729  -0.93504
 Alpha  occ. eigenvalues --   -0.90914  -0.87724  -0.86011  -0.83477  -0.82681
 Alpha  occ. eigenvalues --   -0.78916  -0.76577  -0.75819  -0.73796  -0.73585
 Alpha  occ. eigenvalues --   -0.71099  -0.70546  -0.69905  -0.68194  -0.67757
 Alpha  occ. eigenvalues --   -0.67486  -0.66911  -0.65958  -0.65478  -0.65105
 Alpha  occ. eigenvalues --   -0.64863  -0.64174  -0.63624  -0.63488  -0.62211
 Alpha  occ. eigenvalues --   -0.58360  -0.58259  -0.57577  -0.56593  -0.56175
 Alpha  occ. eigenvalues --   -0.56038  -0.55338  -0.55248  -0.55047  -0.54569
 Alpha  occ. eigenvalues --   -0.54303  -0.53976  -0.53716  -0.53121  -0.52633
 Alpha  occ. eigenvalues --   -0.52541  -0.52457  -0.51920  -0.51544  -0.51224
 Alpha  occ. eigenvalues --   -0.50853  -0.50279  -0.50205  -0.49826  -0.49626
 Alpha  occ. eigenvalues --   -0.49300  -0.49115  -0.48631  -0.47975  -0.47252
 Alpha  occ. eigenvalues --   -0.46533  -0.45982  -0.45529  -0.44856  -0.44627
 Alpha  occ. eigenvalues --   -0.43180  -0.42437  -0.42139  -0.40883  -0.40765
 Alpha  occ. eigenvalues --   -0.39698  -0.37526  -0.35275  -0.33396  -0.30435
 Alpha  occ. eigenvalues --   -0.30222  -0.29187
 Alpha virt. eigenvalues --   -0.00267   0.01786   0.04089   0.04214   0.05829
 Alpha virt. eigenvalues --    0.08066   0.10138   0.12677   0.12813   0.13684
 Alpha virt. eigenvalues --    0.14483   0.15400   0.15912   0.16725   0.18313

 Mulliken charges:
               1
     1  F   -0.244364
     2  C    0.767440
     3  F   -0.244042
     4  C    0.518998
     5  F   -0.252614
     6  F   -0.271898
     7  C    0.180946
     8  F   -0.288979
     9  C    0.590607
    10  F   -0.257062
    11  C    0.537833
    12  O   -0.474200
    13  O   -0.445622
    14  F   -0.270036
    15  C    0.489662
    16  F   -0.279493
    17  C    0.556357
    18  F   -0.289662
    19  C    0.567939
    20  N   -0.527092
    21  C   -0.127863
    22  C    0.097599
    23  C   -0.160820
    24  C    0.090656
    25  C   -0.104964
    26  N   -0.611566
    27  C   -0.106771
    28  C   -0.094624
    29  C   -0.134399
    30  O   -0.505492
    31  F   -0.256482
    32  O   -0.487016
    33  H    0.359679
    34  H    0.291022
    35  H    0.161757
    36  H    0.127144
    37  H    0.109266
    38  H    0.089794
    39  H    0.113287
    40  H    0.245941
    41  H    0.245549
    42  H    0.103298
    43  H    0.099766
    44  H    0.090520
 Sum of Mulliken charges =   0.00000

 Dipole moment (field-independent basis, Debye):
    X=              0.1465    Y=             -3.5317    Z=             -2.0921  Tot=              4.1075
 Quadrupole moment (field-independent basis, Debye-Ang):
   XX=           -172.1656   YY=           -176.1284   ZZ=           -167.0400
   XY=             14.3945   XZ=              0.4842   YZ=              9.3292

 Normal termination of Gaussian 09 at Mon Feb  3 21:52:20 2025.
