 Gaussian 09, Revision D.01,
 Gaussian 09:  ES64L-G09RevD.01 24-Apr-2013

 ----------------------------------------------------------------------
 #p CAM-B3LYP/6-31G(d,p) SCRF=(PCM,Solvent=Generic,Read) NoSymm out=wfn
 ----------------------------------------------------------------------

 --------------------
 Title A1639138551_p1
 --------------------
 Symbolic Z-matrix:
 Charge =  1 Multiplicity = 2

                          Input orientation:
 ---------------------------------------------------------------------
 Center     Atomic      Atomic             Coordinates (Angstroms)
 Number     Number       Type             X           Y           Z
 ---------------------------------------------------------------------
      1          6           0       -2.551479    2.472056   -1.713418
      2          6           0       -1.682954    2.369409   -0.457093
      3          6           0       -2.456783    2.785110    0.798186
      4          7           0       -1.046485    1.040010   -0.334332
      5          6           0       -1.809923   -0.059781    0.011972
      6          8           0       -3.039327   -0.027344    0.027258
      7          7           0       -1.097090   -1.199815    0.334618
      8          6           0       -1.789504   -2.352401    0.950718
      9          6           0       -2.673401   -3.091738   -0.056927
     10          6           0       -2.568332   -1.981288    2.216866
     11          6           0        0.199830   -1.387514   -0.103553
     12          8           0        0.831079   -2.411312    0.155403
     13          7           0        0.749128   -0.372473   -0.840903
     14          6           0        2.113991   -0.552229   -1.314163
     15          9           0        2.221953   -1.798006   -1.862046
     16          9           0        2.321870    0.272241   -2.383047
     17          6           0        3.225733   -0.332376   -0.253867
     18          9           0        3.127491   -1.293069    0.711362
     19          8           0        3.006879    0.907201    0.429260
     20          6           0        4.089535    1.300819    1.228680
     21          9           0        4.562768    0.270365    1.945912
     22          9           0        5.057820    1.809036    0.450226
     23          9           0        3.667650    2.258628    2.075324
     24          6           0        4.548985   -0.494797   -1.015544
     25          9           0        5.611206   -0.475964   -0.173186
     26          9           0        4.746554    0.503586   -1.905556
     27          9           0        4.629706   -1.661053   -1.692153
     28          6           0        0.254684    0.904632   -0.780909
     29          8           0        0.933833    1.879510   -1.103509
     30          1           0       -3.420209    1.808369   -1.670121
     31          1           0       -2.921103    3.494802   -1.843347
     32          1           0       -1.974637    2.205869   -2.605719
     33          1           0       -0.889637    3.118178   -0.569902
     34          1           0       -3.369048    2.200269    0.945044
     35          1           0       -2.755099    3.837047    0.729521
     36          1           0       -1.834347    2.669155    1.691930
     37          1           0       -1.028696   -3.071115    1.278533
     38          1           0       -3.512616   -2.478088   -0.397869
     39          1           0       -2.094340   -3.382129   -0.940192
     40          1           0       -3.087359   -4.002216    0.389357
     41          1           0       -1.933786   -1.418573    2.909933
     42          1           0       -2.909707   -2.886141    2.731642
     43          1           0       -3.454831   -1.376874    2.005609
 ---------------------------------------------------------------------

 SCF Done:  E(UCAM-B3LYP) =  -1866.66866965     A.U. after   39 cycles

 Alpha  occ. eigenvalues --  -24.86484 -24.86357 -24.85691 -24.85647 -24.85584
 Alpha  occ. eigenvalues --  -24.85391 -24.85353 -24.85016 -24.84652 -19.35869
 Alpha  occ. eigenvalues --  -19.32937 -19.32115 -19.31582 -14.62568 -14.60698
 Alpha  occ. eigenvalues --  -14.58532 -10.61830 -10.57594 -10.57234 -10.52957
 Alpha  occ. eigenvalues --  -10.52680 -10.52238 -10.51990 -10.38907 -10.38030
 Alpha  occ. eigenvalues --  -10.31024 -10.30631 -10.30297 -10.30128  -1.45335
 Alpha  occ. eigenvalues --   -1.43899  -1.42388  -1.38453  -1.35572  -1.35551
 Alpha  occ. eigenvalues --   -1.35254  -1.34328  -1.34061  -1.30395  -1.25365
 Alpha  occ. eigenvalues --   -1.24903  -1.23337  -1.17356  -1.14907  -1.14410
 Alpha  occ. eigenvalues --   -0.97214  -0.95612  -0.94146  -0.89818  -0.86079
 Alpha  occ. eigenvalues --   -0.85335  -0.84330  -0.82790  -0.82241  -0.81258
 Alpha  occ. eigenvalues --   -0.80149  -0.77652  -0.75287  -0.74746  -0.74548
 Alpha  occ. eigenvalues --   -0.72786  -0.71988  -0.70754  -0.70679  -0.69933
 Alpha  occ. eigenvalues --   -0.69324  -0.68409  -0.67743  -0.65677  -0.63349
 Alpha  occ. eigenvalues --   -0.63019  -0.62624  -0.62285  -0.61025  -0.60730
 Alpha  occ. eigenvalues --   -0.60080  -0.59442  -0.59214  -0.58685  -0.58410
 Alpha  occ. eigenvalues --   -0.57925  -0.57396  -0.57136  -0.56828  -0.56122
 Alpha  occ. eigenvalues --   -0.55921  -0.55123  -0.54728  -0.54484  -0.53974
 Alpha  occ. eigenvalues --   -0.53811  -0.53148  -0.52828  -0.52489  -0.52043
 Alpha  occ. eigenvalues --   -0.51547  -0.51448  -0.50958  -0.50906  -0.50148
 Alpha  occ. eigenvalues --   -0.49485  -0.49081  -0.48913  -0.47919  -0.47788
 Alpha  occ. eigenvalues --   -0.47246  -0.46784  -0.45685  -0.45084  -0.44621
 Alpha  occ. eigenvalues --   -0.44384  -0.43433  -0.43341
 Alpha virt. eigenvalues --   -0.06583  -0.05680   0.02387   0.02733   0.06315
 Alpha virt. eigenvalues --    0.08656   0.09759   0.10636   0.11431   0.12700
 Alpha virt. eigenvalues --    0.13918   0.14667   0.15067   0.15933   0.16288

  Beta  occ. eigenvalues --  -24.86480 -24.86355 -24.85691 -24.85645 -24.85584
  Beta  occ. eigenvalues --  -24.85391 -24.85353 -24.85016 -24.84652 -19.35865
  Beta  occ. eigenvalues --  -19.32426 -19.31980 -19.31235 -14.61696 -14.60048
  Beta  occ. eigenvalues --  -14.58582 -10.61830 -10.57594 -10.57233 -10.53131
  Beta  occ. eigenvalues --  -10.52785 -10.52363 -10.51992 -10.38891 -10.38019
  Beta  occ. eigenvalues --  -10.30918 -10.30578 -10.30219 -10.30086  -1.45334
  Beta  occ. eigenvalues --   -1.43898  -1.42385  -1.38448  -1.35571  -1.35545
  Beta  occ. eigenvalues --   -1.35253  -1.34326  -1.34061  -1.29756  -1.24741
  Beta  occ. eigenvalues --   -1.24346  -1.23312  -1.16405  -1.14108  -1.13177
  Beta  occ. eigenvalues --   -0.97120  -0.95407  -0.93772  -0.89711  -0.85851
  Beta  occ. eigenvalues --   -0.85121  -0.84240  -0.82402  -0.81958  -0.80838
  Beta  occ. eigenvalues --   -0.80059  -0.77564  -0.75266  -0.74688  -0.74305
  Beta  occ. eigenvalues --   -0.72765  -0.71960  -0.70669  -0.70612  -0.69531
  Beta  occ. eigenvalues --   -0.69178  -0.67773  -0.67294  -0.65336  -0.62979
  Beta  occ. eigenvalues --   -0.62686  -0.62407  -0.60677  -0.60359  -0.60118
  Beta  occ. eigenvalues --   -0.59699  -0.59232  -0.58999  -0.58568  -0.58348
  Beta  occ. eigenvalues --   -0.57871  -0.57386  -0.56847  -0.56714  -0.56052
  Beta  occ. eigenvalues --   -0.55800  -0.54976  -0.54683  -0.54194  -0.53840
  Beta  occ. eigenvalues --   -0.53480  -0.52879  -0.52546  -0.52244  -0.52007
  Beta  occ. eigenvalues --   -0.51415  -0.51089  -0.50904  -0.50560  -0.49863
  Beta  occ. eigenvalues --   -0.49168  -0.48762  -0.48098  -0.47562  -0.47062
  Beta  occ. eigenvalues --   -0.46667  -0.46226  -0.44781  -0.43700  -0.43197
  Beta  occ. eigenvalues --   -0.42472  -0.41055
  Beta virt. eigenvalues --   -0.28111  -0.06494  -0.04113   0.02399   0.03707
  Beta virt. eigenvalues --    0.06546   0.08774   0.09845   0.10959   0.11526
  Beta virt. eigenvalues --    0.12866   0.14052   0.14704   0.15112   0.16065

 Mulliken charges and spin densities:
               1          2
     1  C   -0.320192   0.056050
     2  C   -0.009753   0.001856
     3  C   -0.341446   0.022615
     4  N   -0.485833   0.400400
     5  C    0.867438  -0.071949
     6  O   -0.421424   0.055075
     7  N   -0.510946   0.298854
     8  C   -0.000994   0.000048
     9  C   -0.320496   0.040873
    10  C   -0.341370   0.017546
    11  C    0.868834  -0.071513
    12  O   -0.419355   0.137125
    13  N   -0.647613  -0.013916
    14  C    0.761578  -0.000858
    15  F   -0.247397   0.000579
    16  F   -0.246336   0.000851
    17  C    0.440319  -0.000492
    18  F   -0.251479   0.000551
    19  O   -0.514712   0.000834
    20  C    1.001048   0.000038
    21  F   -0.239249   0.000071
    22  F   -0.238558   0.000006
    23  F   -0.237423   0.000001
    24  C    0.819543  -0.000120
    25  F   -0.254561  -0.000039
    26  F   -0.242786   0.000005
    27  F   -0.240192   0.000004
    28  C    0.887075  -0.100241
    29  O   -0.399081   0.201474
    30  H    0.160879  -0.001828
    31  H    0.169557   0.002316
    32  H    0.146544  -0.001629
    33  H    0.211394   0.005115
    34  H    0.160995   0.000405
    35  H    0.168202   0.005659
    36  H    0.145635   0.002955
    37  H    0.203976   0.003904
    38  H    0.154653  -0.001361
    39  H    0.140734  -0.001261
    40  H    0.162908   0.001898
    41  H    0.140172   0.002157
    42  H    0.163872   0.005448
    43  H    0.155841   0.000495
 Sum of Mulliken charges =   1.00000   1.00000

 Dipole moment (field-independent basis, Debye):
    X=             -7.8308    Y=              0.8732    Z=              0.7721  Tot=              7.9171
 Quadrupole moment (field-independent basis, Debye-Ang):
   XX=           -144.0911   YY=           -134.2984   ZZ=           -149.2192
   XY=              0.2291   XZ=             -0.0763   YZ=             -4.9607

 Normal termination of Gaussian 09 at Sun Mar  3 17:33:48 2024.
