 Gaussian 09, Revision D.01,
 Gaussian 09:  ES64L-G09RevD.01 24-Apr-2013

 ----------------------------------------------------------------------
 #p CAM-B3LYP/6-31G(d,p) SCRF=(PCM,Solvent=Generic,Read) NoSymm out=wfn
 ----------------------------------------------------------------------

 -------------------
 Title A1639138551_0
 -------------------
 Symbolic Z-matrix:
 Charge =  0 Multiplicity = 1

                          Input orientation:
 ---------------------------------------------------------------------
 Center     Atomic      Atomic             Coordinates (Angstroms)
 Number     Number       Type             X           Y           Z
 ---------------------------------------------------------------------
      1          6           0       -2.551479    2.472056   -1.713418
      2          6           0       -1.682954    2.369409   -0.457093
      3          6           0       -2.456783    2.785110    0.798186
      4          7           0       -1.046485    1.040010   -0.334332
      5          6           0       -1.809923   -0.059781    0.011972
      6          8           0       -3.039327   -0.027344    0.027258
      7          7           0       -1.097090   -1.199815    0.334618
      8          6           0       -1.789504   -2.352401    0.950718
      9          6           0       -2.673401   -3.091738   -0.056927
     10          6           0       -2.568332   -1.981288    2.216866
     11          6           0        0.199830   -1.387514   -0.103553
     12          8           0        0.831079   -2.411312    0.155403
     13          7           0        0.749128   -0.372473   -0.840903
     14          6           0        2.113991   -0.552229   -1.314163
     15          9           0        2.221953   -1.798006   -1.862046
     16          9           0        2.321870    0.272241   -2.383047
     17          6           0        3.225733   -0.332376   -0.253867
     18          9           0        3.127491   -1.293069    0.711362
     19          8           0        3.006879    0.907201    0.429260
     20          6           0        4.089535    1.300819    1.228680
     21          9           0        4.562768    0.270365    1.945912
     22          9           0        5.057820    1.809036    0.450226
     23          9           0        3.667650    2.258628    2.075324
     24          6           0        4.548985   -0.494797   -1.015544
     25          9           0        5.611206   -0.475964   -0.173186
     26          9           0        4.746554    0.503586   -1.905556
     27          9           0        4.629706   -1.661053   -1.692153
     28          6           0        0.254684    0.904632   -0.780909
     29          8           0        0.933833    1.879510   -1.103509
     30          1           0       -3.420209    1.808369   -1.670121
     31          1           0       -2.921103    3.494802   -1.843347
     32          1           0       -1.974637    2.205869   -2.605719
     33          1           0       -0.889637    3.118178   -0.569902
     34          1           0       -3.369048    2.200269    0.945044
     35          1           0       -2.755099    3.837047    0.729521
     36          1           0       -1.834347    2.669155    1.691930
     37          1           0       -1.028696   -3.071115    1.278533
     38          1           0       -3.512616   -2.478088   -0.397869
     39          1           0       -2.094340   -3.382129   -0.940192
     40          1           0       -3.087359   -4.002216    0.389357
     41          1           0       -1.933786   -1.418573    2.909933
     42          1           0       -2.909707   -2.886141    2.731642
     43          1           0       -3.454831   -1.376874    2.005609
 ---------------------------------------------------------------------

 SCF Done:  E(RCAM-B3LYP) =  -1866.98067242     A.U. after   13 cycles

 Alpha  occ. eigenvalues --  -24.83530 -24.83420 -24.83308 -24.83166 -24.82814
 Alpha  occ. eigenvalues --  -24.82545 -24.82434 -24.82359 -24.82329 -19.32804
 Alpha  occ. eigenvalues --  -19.22723 -19.22689 -19.22639 -14.51709 -14.48961
 Alpha  occ. eigenvalues --  -14.48929 -10.59450 -10.55172 -10.52782 -10.48672
 Alpha  occ. eigenvalues --  -10.44584 -10.44546 -10.43710 -10.31732 -10.31703
 Alpha  occ. eigenvalues --  -10.25425 -10.25409 -10.25304 -10.25289  -1.43114
 Alpha  occ. eigenvalues --   -1.41544  -1.38534  -1.35317  -1.33430  -1.33174
 Alpha  occ. eigenvalues --   -1.32535  -1.31945  -1.31065  -1.21363  -1.20332
 Alpha  occ. eigenvalues --   -1.16238  -1.16138  -1.08320  -1.06044  -1.04368
 Alpha  occ. eigenvalues --   -0.93183  -0.89186  -0.87277  -0.83845  -0.81694
 Alpha  occ. eigenvalues --   -0.78615  -0.77895  -0.77237  -0.77163  -0.76075
 Alpha  occ. eigenvalues --   -0.73487  -0.72497  -0.72133  -0.70783  -0.70259
 Alpha  occ. eigenvalues --   -0.69128  -0.68409  -0.67811  -0.66812  -0.66180
 Alpha  occ. eigenvalues --   -0.65111  -0.63900  -0.60664  -0.59635  -0.58976
 Alpha  occ. eigenvalues --   -0.57377  -0.56962  -0.56043  -0.55819  -0.55716
 Alpha  occ. eigenvalues --   -0.55484  -0.55109  -0.54583  -0.53730  -0.53620
 Alpha  occ. eigenvalues --   -0.53389  -0.52930  -0.52873  -0.52670  -0.52104
 Alpha  occ. eigenvalues --   -0.51926  -0.51289  -0.50930  -0.50443  -0.50314
 Alpha  occ. eigenvalues --   -0.50162  -0.49637  -0.49488  -0.48740  -0.48603
 Alpha  occ. eigenvalues --   -0.48079  -0.46888  -0.45976  -0.45456  -0.45314
 Alpha  occ. eigenvalues --   -0.45230  -0.44539  -0.44277  -0.42191  -0.41789
 Alpha  occ. eigenvalues --   -0.41457  -0.41162  -0.38528  -0.37161  -0.36823
 Alpha  occ. eigenvalues --   -0.35766  -0.35032  -0.34184
 Alpha virt. eigenvalues --    0.01405   0.02884   0.06126   0.09134   0.12267
 Alpha virt. eigenvalues --    0.13580   0.14366   0.15331   0.16642   0.17634
 Alpha virt. eigenvalues --    0.18850   0.19190   0.19710   0.20163   0.20344

 Mulliken charges:
               1
     1  C   -0.317028
     2  C    0.047472
     3  C   -0.331010
     4  N   -0.576312
     5  C    0.827092
     6  O   -0.509857
     7  N   -0.574701
     8  C    0.047478
     9  C   -0.317229
    10  C   -0.331045
    11  C    0.824646
    12  O   -0.513707
    13  N   -0.642298
    14  C    0.760006
    15  F   -0.260352
    16  F   -0.257485
    17  C    0.437240
    18  F   -0.255738
    19  O   -0.504827
    20  C    0.995074
    21  F   -0.243541
    22  F   -0.243725
    23  F   -0.240649
    24  C    0.811369
    25  F   -0.261017
    26  F   -0.246584
    27  F   -0.244360
    28  C    0.839170
    29  O   -0.514866
    30  H    0.132871
    31  H    0.120611
    32  H    0.114055
    33  H    0.158384
    34  H    0.135475
    35  H    0.122149
    36  H    0.114531
    37  H    0.158116
    38  H    0.133171
    39  H    0.114132
    40  H    0.120846
    41  H    0.114382
    42  H    0.122330
    43  H    0.135727
 Sum of Mulliken charges =   0.00000

 Dipole moment (field-independent basis, Debye):
    X=             -3.2514    Y=              0.4860    Z=              1.4096  Tot=              3.5770
 Quadrupole moment (field-independent basis, Debye-Ang):
   XX=           -169.5151   YY=           -159.8804   ZZ=           -159.0897
   XY=              1.2476   XZ=              1.8835   YZ=              0.0545

 Normal termination of Gaussian 09 at Sun Mar  3 17:32:12 2024.
