 Gaussian 09, Revision D.01,
 Gaussian 09:  ES64L-G09RevD.01 24-Apr-2013

 ----------------------------------------------------------------------
 #p CAM-B3LYP/6-31G(d,p) SCRF=(PCM,Solvent=Generic,Read) NoSymm out=wfn
 ----------------------------------------------------------------------

 ------------------
 Title A892693592_0
 ------------------
 Symbolic Z-matrix:
 Charge =  0 Multiplicity = 1

                          Input orientation:
 ---------------------------------------------------------------------
 Center     Atomic      Atomic             Coordinates (Angstroms)
 Number     Number       Type             X           Y           Z
 ---------------------------------------------------------------------
      1          6           0       -0.607243    5.601474   -0.058187
      2          6           0       -1.698483    4.630411    0.365262
      3          6           0       -1.212544    3.185539    0.494819
      4          6           0       -0.798362    2.566022   -0.843789
      5          7           0       -0.381420    1.167740   -0.723960
      6          6           0       -1.397272    0.197505   -0.490384
      7          7           0       -0.935299   -1.115331   -0.790635
      8          6           0       -1.945753   -2.158124   -0.969907
      9          6           0       -2.639468   -2.559123    0.335199
     10          6           0       -3.645011   -3.686191    0.102495
     11          6           0       -4.342264   -4.085977    1.393022
     12          6           0        0.323641   -1.471769   -0.344856
     13          8           0        0.570076   -2.648425   -0.084609
     14          7           0        1.251304   -0.445102   -0.236413
     15          6           0        2.568481   -0.837195    0.260387
     16          9           0        2.448531   -1.014353    1.614003
     17          9           0        2.856895   -2.080278   -0.240038
     18          6           0        3.876581   -0.015560    0.016185
     19          9           0        3.787484    1.223395    0.584041
     20          8           0        5.065431   -0.503092    0.675119
     21          6           0        5.342906   -1.871440    0.566150
     22          9           0        4.518069   -2.574118    1.355948
     23          9           0        6.607343   -2.076944    0.985018
     24          9           0        5.250340   -2.283789   -0.703129
     25          6           0        4.055707    0.141160   -1.499082
     26          9           0        4.036513   -1.033489   -2.165312
     27          9           0        5.241496    0.733191   -1.791132
     28          9           0        3.092817    0.898975   -2.070937
     29          6           0        0.896831    0.880928   -0.298744
     30          8           0        1.669625    1.792154   -0.024177
     31          1           0       -0.988545    6.627460   -0.035289
     32          1           0        0.252933    5.544824    0.616314
     33          1           0       -0.262977    5.399965   -1.076636
     34          1           0       -2.091678    4.952375    1.336994
     35          1           0       -2.530788    4.682581   -0.346163
     36          1           0       -2.024336    2.592461    0.933085
     37          1           0       -0.380274    3.139036    1.207319
     38          1           0       -1.624845    2.611973   -1.562509
     39          1           0        0.034472    3.129645   -1.278603
     40          1           0       -2.260292    0.425064   -1.125028
     41          1           0       -1.690902    0.238304    0.564712
     42          1           0       -2.679020   -1.794789   -1.699586
     43          1           0       -1.462115   -3.036011   -1.415417
     44          1           0       -3.156108   -1.691662    0.763106
     45          1           0       -1.894665   -2.876596    1.074716
     46          1           0       -3.133663   -4.561124   -0.315463
     47          1           0       -4.396991   -3.368955   -0.629329
     48          1           0       -4.890638   -3.240630    1.820820
     49          1           0       -3.619975   -4.438805    2.136092
     50          1           0       -5.056548   -4.893312    1.203533
 ---------------------------------------------------------------------

 SCF Done:  E(RCAM-B3LYP) =  -1871.50889282     A.U. after   13 cycles

 Alpha  occ. eigenvalues --  -24.82999 -24.82679 -24.82638 -24.82434 -24.82212
 Alpha  occ. eigenvalues --  -24.82070 -24.81315 -24.80980 -24.80975 -19.32245
 Alpha  occ. eigenvalues --  -19.20675 -19.20432 -14.50283 -14.45209 -14.45168
 Alpha  occ. eigenvalues --  -10.58708 -10.54341 -10.51837 -10.48325 -10.42281
 Alpha  occ. eigenvalues --  -10.42120 -10.34431 -10.30166 -10.30118 -10.25716
 Alpha  occ. eigenvalues --  -10.25664 -10.25509 -10.25459 -10.24468 -10.24396
 Alpha  occ. eigenvalues --   -1.42504  -1.41008  -1.37351  -1.33991  -1.33190
 Alpha  occ. eigenvalues --   -1.32271  -1.31718  -1.31429  -1.30291  -1.19347
 Alpha  occ. eigenvalues --   -1.18266  -1.14308  -1.07435  -1.05672  -1.01079
 Alpha  occ. eigenvalues --   -0.91938  -0.88740  -0.87993  -0.83952  -0.82297
 Alpha  occ. eigenvalues --   -0.81264  -0.81152  -0.79051  -0.76513  -0.74925
 Alpha  occ. eigenvalues --   -0.73560  -0.72575  -0.71496  -0.70020  -0.69635
 Alpha  occ. eigenvalues --   -0.68445  -0.68063  -0.67636  -0.66826  -0.66184
 Alpha  occ. eigenvalues --   -0.65570  -0.65313  -0.64788  -0.62569  -0.60081
 Alpha  occ. eigenvalues --   -0.58472  -0.57842  -0.56694  -0.56526  -0.56026
 Alpha  occ. eigenvalues --   -0.55493  -0.54946  -0.54734  -0.54578  -0.54085
 Alpha  occ. eigenvalues --   -0.53945  -0.53288  -0.52993  -0.52864  -0.52402
 Alpha  occ. eigenvalues --   -0.52158  -0.51574  -0.51024  -0.50706  -0.50409
 Alpha  occ. eigenvalues --   -0.50184  -0.49893  -0.49296  -0.49128  -0.48697
 Alpha  occ. eigenvalues --   -0.48277  -0.48082  -0.48039  -0.47948  -0.47245
 Alpha  occ. eigenvalues --   -0.46533  -0.46121  -0.45764  -0.44937  -0.43411
 Alpha  occ. eigenvalues --   -0.42432  -0.41958  -0.41242  -0.40168  -0.39941
 Alpha  occ. eigenvalues --   -0.39398  -0.39184  -0.39006  -0.36711  -0.35625
 Alpha  occ. eigenvalues --   -0.34470  -0.31763  -0.30696
 Alpha virt. eigenvalues --    0.03947   0.05726   0.07229   0.11308   0.13027
 Alpha virt. eigenvalues --    0.13587   0.14325   0.15200   0.16414   0.16806
 Alpha virt. eigenvalues --    0.17451   0.17581   0.18356   0.18951   0.19195

 Mulliken charges:
               1
     1  C   -0.321703
     2  C   -0.186288
     3  C   -0.188543
     4  C   -0.047543
     5  N   -0.517098
     6  C    0.126137
     7  N   -0.518012
     8  C   -0.052929
     9  C   -0.183911
    10  C   -0.183070
    11  C   -0.322242
    12  C    0.809516
    13  O   -0.528990
    14  N   -0.641465
    15  C    0.762292
    16  F   -0.276370
    17  F   -0.269436
    18  C    0.426527
    19  F   -0.248606
    20  O   -0.509855
    21  C    0.985770
    22  F   -0.242811
    23  F   -0.246453
    24  F   -0.241499
    25  C    0.790560
    26  F   -0.240901
    27  F   -0.254148
    28  F   -0.237590
    29  C    0.813879
    30  O   -0.541493
    31  H    0.105539
    32  H    0.112632
    33  H    0.107972
    34  H    0.102457
    35  H    0.097079
    36  H    0.099605
    37  H    0.119659
    38  H    0.121269
    39  H    0.142391
    40  H    0.139394
    41  H    0.132409
    42  H    0.121804
    43  H    0.140637
    44  H    0.100774
    45  H    0.119979
    46  H    0.105956
    47  H    0.098092
    48  H    0.104594
    49  H    0.109544
    50  H    0.104484
 Sum of Mulliken charges =   0.00000

 Dipole moment (field-independent basis, Debye):
    X=             -7.5869    Y=              1.8726    Z=             -1.2513  Tot=              7.9141
 Quadrupole moment (field-independent basis, Debye-Ang):
   XX=           -174.1946   YY=           -174.0627   ZZ=           -169.6107
   XY=             -0.3799   XZ=              1.4031   YZ=              0.6102

 Normal termination of Gaussian 09 at Sun Mar  3 18:03:26 2024.
