 Gaussian 09, Revision D.01,
 Gaussian 09:  ES64L-G09RevD.01 24-Apr-2013

 ----------------------------------------------------------------------
 #p CAM-B3LYP/6-31G(d,p) SCRF=(PCM,Solvent=Generic,Read) NoSymm out=wfn
 ----------------------------------------------------------------------

 -------------------
 Title A892693592_p1
 -------------------
 Symbolic Z-matrix:
 Charge =  1 Multiplicity = 2

                          Input orientation:
 ---------------------------------------------------------------------
 Center     Atomic      Atomic             Coordinates (Angstroms)
 Number     Number       Type             X           Y           Z
 ---------------------------------------------------------------------
      1          6           0       -0.607243    5.601474   -0.058187
      2          6           0       -1.698483    4.630411    0.365262
      3          6           0       -1.212544    3.185539    0.494819
      4          6           0       -0.798362    2.566022   -0.843789
      5          7           0       -0.381420    1.167740   -0.723960
      6          6           0       -1.397272    0.197505   -0.490384
      7          7           0       -0.935299   -1.115331   -0.790635
      8          6           0       -1.945753   -2.158124   -0.969907
      9          6           0       -2.639468   -2.559123    0.335199
     10          6           0       -3.645011   -3.686191    0.102495
     11          6           0       -4.342264   -4.085977    1.393022
     12          6           0        0.323641   -1.471769   -0.344856
     13          8           0        0.570076   -2.648425   -0.084609
     14          7           0        1.251304   -0.445102   -0.236413
     15          6           0        2.568481   -0.837195    0.260387
     16          9           0        2.448531   -1.014353    1.614003
     17          9           0        2.856895   -2.080278   -0.240038
     18          6           0        3.876581   -0.015560    0.016185
     19          9           0        3.787484    1.223395    0.584041
     20          8           0        5.065431   -0.503092    0.675119
     21          6           0        5.342906   -1.871440    0.566150
     22          9           0        4.518069   -2.574118    1.355948
     23          9           0        6.607343   -2.076944    0.985018
     24          9           0        5.250340   -2.283789   -0.703129
     25          6           0        4.055707    0.141160   -1.499082
     26          9           0        4.036513   -1.033489   -2.165312
     27          9           0        5.241496    0.733191   -1.791132
     28          9           0        3.092817    0.898975   -2.070937
     29          6           0        0.896831    0.880928   -0.298744
     30          8           0        1.669625    1.792154   -0.024177
     31          1           0       -0.988545    6.627460   -0.035289
     32          1           0        0.252933    5.544824    0.616314
     33          1           0       -0.262977    5.399965   -1.076636
     34          1           0       -2.091678    4.952375    1.336994
     35          1           0       -2.530788    4.682581   -0.346163
     36          1           0       -2.024336    2.592461    0.933085
     37          1           0       -0.380274    3.139036    1.207319
     38          1           0       -1.624845    2.611973   -1.562509
     39          1           0        0.034472    3.129645   -1.278603
     40          1           0       -2.260292    0.425064   -1.125028
     41          1           0       -1.690902    0.238304    0.564712
     42          1           0       -2.679020   -1.794789   -1.699586
     43          1           0       -1.462115   -3.036011   -1.415417
     44          1           0       -3.156108   -1.691662    0.763106
     45          1           0       -1.894665   -2.876596    1.074716
     46          1           0       -3.133663   -4.561124   -0.315463
     47          1           0       -4.396991   -3.368955   -0.629329
     48          1           0       -4.890638   -3.240630    1.820820
     49          1           0       -3.619975   -4.438805    2.136092
     50          1           0       -5.056548   -4.893312    1.203533
 ---------------------------------------------------------------------

 SCF Done:  E(UCAM-B3LYP) =  -1871.23392863     A.U. after   34 cycles

 Alpha  occ. eigenvalues --  -24.85922 -24.85558 -24.85291 -24.85097 -24.84771
 Alpha  occ. eigenvalues --  -24.84630 -24.84442 -24.84336 -24.84013 -19.34841
 Alpha  occ. eigenvalues --  -19.31924 -19.26761 -14.62145 -14.57960 -14.53927
 Alpha  occ. eigenvalues --  -10.60843 -10.57021 -10.56585 -10.52049 -10.51612
 Alpha  occ. eigenvalues --  -10.48705 -10.44246 -10.38225 -10.35042 -10.32194
 Alpha  occ. eigenvalues --  -10.29528 -10.29424 -10.28066 -10.27332 -10.26421
 Alpha  occ. eigenvalues --   -1.44738  -1.43542  -1.41677  -1.37035  -1.35413
 Alpha  occ. eigenvalues --   -1.34746  -1.34382  -1.34079  -1.33754  -1.27718
 Alpha  occ. eigenvalues --   -1.22495  -1.21863  -1.18254  -1.13387  -1.10716
 Alpha  occ. eigenvalues --   -0.96060  -0.94693  -0.92558  -0.91282  -0.88666
 Alpha  occ. eigenvalues --   -0.87029  -0.84337  -0.83614  -0.82033  -0.79948
 Alpha  occ. eigenvalues --   -0.77276  -0.77027  -0.75557  -0.74888  -0.74404
 Alpha  occ. eigenvalues --   -0.72207  -0.72165  -0.71313  -0.71049  -0.70756
 Alpha  occ. eigenvalues --   -0.69715  -0.69675  -0.68468  -0.67999  -0.66173
 Alpha  occ. eigenvalues --   -0.65795  -0.64273  -0.62199  -0.61307  -0.61141
 Alpha  occ. eigenvalues --   -0.60476  -0.59753  -0.59404  -0.58788  -0.58696
 Alpha  occ. eigenvalues --   -0.58093  -0.57700  -0.57435  -0.57215  -0.56523
 Alpha  occ. eigenvalues --   -0.55933  -0.55576  -0.55171  -0.54835  -0.54382
 Alpha  occ. eigenvalues --   -0.54072  -0.53712  -0.53333  -0.53148  -0.52639
 Alpha  occ. eigenvalues --   -0.51783  -0.51545  -0.51460  -0.50932  -0.50765
 Alpha  occ. eigenvalues --   -0.50360  -0.50062  -0.49780  -0.49604  -0.48023
 Alpha  occ. eigenvalues --   -0.47263  -0.46746  -0.45760  -0.44928  -0.44242
 Alpha  occ. eigenvalues --   -0.43606  -0.43156  -0.42897  -0.42737  -0.42036
 Alpha  occ. eigenvalues --   -0.41944  -0.40707  -0.38405
 Alpha virt. eigenvalues --   -0.04880   0.00745   0.01819   0.06653   0.07570
 Alpha virt. eigenvalues --    0.08586   0.09707   0.10137   0.11583   0.12083
 Alpha virt. eigenvalues --    0.12510   0.13112   0.14325   0.14484   0.15100

  Beta  occ. eigenvalues --  -24.85904 -24.85557 -24.85281 -24.85097 -24.84771
  Beta  occ. eigenvalues --  -24.84629 -24.84442 -24.84336 -24.84012 -19.34841
  Beta  occ. eigenvalues --  -19.31509 -19.26758 -14.60928 -14.57894 -14.53628
  Beta  occ. eigenvalues --  -10.60843 -10.57022 -10.56590 -10.52201 -10.51610
  Beta  occ. eigenvalues --  -10.48731 -10.44273 -10.38232 -10.35047 -10.32074
  Beta  occ. eigenvalues --  -10.29503 -10.29417 -10.28066 -10.27319 -10.26419
  Beta  occ. eigenvalues --   -1.44735  -1.43541  -1.41651  -1.37031  -1.35411
  Beta  occ. eigenvalues --   -1.34726  -1.34377  -1.34075  -1.33753  -1.26917
  Beta  occ. eigenvalues --   -1.22174  -1.21842  -1.16784  -1.13116  -1.09750
  Beta  occ. eigenvalues --   -0.95945  -0.94414  -0.92335  -0.90884  -0.88465
  Beta  occ. eigenvalues --   -0.86920  -0.84150  -0.83613  -0.81877  -0.79604
  Beta  occ. eigenvalues --   -0.77159  -0.76859  -0.75191  -0.74736  -0.74282
  Beta  occ. eigenvalues --   -0.72199  -0.71297  -0.71165  -0.70869  -0.70660
  Beta  occ. eigenvalues --   -0.69652  -0.69180  -0.68394  -0.67172  -0.65927
  Beta  occ. eigenvalues --   -0.65393  -0.63572  -0.61558  -0.61012  -0.60731
  Beta  occ. eigenvalues --   -0.59986  -0.59476  -0.59029  -0.58645  -0.58343
  Beta  occ. eigenvalues --   -0.57835  -0.57431  -0.57340  -0.57053  -0.56501
  Beta  occ. eigenvalues --   -0.55785  -0.55333  -0.55045  -0.54623  -0.54112
  Beta  occ. eigenvalues --   -0.53768  -0.53558  -0.53248  -0.53107  -0.52535
  Beta  occ. eigenvalues --   -0.51728  -0.51535  -0.51443  -0.50895  -0.50426
  Beta  occ. eigenvalues --   -0.50104  -0.49935  -0.49583  -0.49460  -0.47158
  Beta  occ. eigenvalues --   -0.46835  -0.45882  -0.45268  -0.44031  -0.43689
  Beta  occ. eigenvalues --   -0.43254  -0.42744  -0.42620  -0.41958  -0.41886
  Beta  occ. eigenvalues --   -0.40569  -0.36676
  Beta virt. eigenvalues --   -0.24178  -0.03989   0.01160   0.01921   0.06790
  Beta virt. eigenvalues --    0.07816   0.08830   0.10068   0.10288   0.11712
  Beta virt. eigenvalues --    0.12449   0.12591   0.13187   0.14520   0.14633

 Mulliken charges and spin densities:
               1          2
     1  C   -0.325505   0.000770
     2  C   -0.189461  -0.000516
     3  C   -0.201247   0.013958
     4  C   -0.069794  -0.005084
     5  N   -0.493870   0.140296
     6  C    0.069078  -0.037937
     7  N   -0.375191   0.555654
     8  C   -0.101870  -0.014104
     9  C   -0.205860   0.065035
    10  C   -0.191250   0.003026
    11  C   -0.327541   0.005240
    12  C    0.865809  -0.090203
    13  O   -0.405505   0.162349
    14  N   -0.639986   0.032618
    15  C    0.771417  -0.001864
    16  F   -0.259759   0.002422
    17  F   -0.260109   0.003541
    18  C    0.430427   0.000604
    19  F   -0.242826   0.000268
    20  O   -0.499129   0.000044
    21  C    0.989959   0.000003
    22  F   -0.242705   0.000047
    23  F   -0.240602  -0.000002
    24  F   -0.239787   0.000039
    25  C    0.794389  -0.000133
    26  F   -0.237598   0.000024
    27  F   -0.245800  -0.000004
    28  F   -0.238967   0.000326
    29  C    0.847708  -0.014741
    30  O   -0.485679   0.002489
    31  H    0.118180  -0.000022
    32  H    0.118060  -0.000032
    33  H    0.109723   0.000068
    34  H    0.118042   0.001273
    35  H    0.107556   0.000045
    36  H    0.108072  -0.000089
    37  H    0.136781  -0.000602
    38  H    0.152140   0.000936
    39  H    0.178250   0.007461
    40  H    0.234971   0.034710
    41  H    0.265029   0.110493
    42  H    0.192024   0.010301
    43  H    0.207917   0.013129
    44  H    0.137244  -0.001797
    45  H    0.153965  -0.002592
    46  H    0.128407   0.000188
    47  H    0.121392  -0.000073
    48  H    0.116112  -0.000217
    49  H    0.120910  -0.000210
    50  H    0.126480   0.002867
 Sum of Mulliken charges =   1.00000   1.00000

 Dipole moment (field-independent basis, Debye):
    X=            -10.8070    Y=             -1.5246    Z=             -2.9766  Tot=             11.3127
 Quadrupole moment (field-independent basis, Debye-Ang):
   XX=           -149.4055   YY=           -146.5949   ZZ=           -161.7474
   XY=              5.5629   XZ=              2.5619   YZ=              1.3955

 Normal termination of Gaussian 09 at Sun Mar  3 18:04:58 2024.
