 Gaussian 09, Revision D.01,
 Gaussian 09:  ES64L-G09RevD.01 24-Apr-2013

 ----------------------------------------------------------------------
 #p CAM-B3LYP/6-31G(d,p) SCRF=(PCM,Solvent=Generic,Read) NoSymm out=wfn
 ----------------------------------------------------------------------

 -------------------
 Title A1181988621_0
 -------------------
 Symbolic Z-matrix:
 Charge =  0 Multiplicity = 1

                          Input orientation:
 ---------------------------------------------------------------------
 Center     Atomic      Atomic             Coordinates (Angstroms)
 Number     Number       Type             X           Y           Z
 ---------------------------------------------------------------------
      1          6           0        3.538822   -2.035738   -0.919238
      2          6           0        2.728881   -0.946303   -1.607893
      3          7           0        1.924546   -0.186995   -0.650632
      4          6           0        2.492867    0.923621   -0.060058
      5          8           0        3.645412    1.280728   -0.307901
      6          7           0        1.681588    1.621496    0.808790
      7          6           0        2.192276    2.860964    1.370455
      8          6           0        0.362773    1.294778    1.040185
      9          8           0       -0.401249    2.074515    1.607746
     10          7           0       -0.047887    0.065788    0.585084
     11          6           0       -1.416773   -0.331236    0.871566
     12          9           0       -1.663578   -0.029399    2.189456
     13          9           0       -1.520525   -1.687967    0.856662
     14          6           0       -2.543044    0.320821    0.016398
     15          9           0       -2.179143    1.622812   -0.259761
     16          8           0       -3.784620    0.497420    0.721217
     17          6           0       -4.515409   -0.683845    0.922083
     18          9           0       -5.528803   -0.425288    1.767837
     19          9           0       -5.025288   -1.107183   -0.244110
     20          9           0       -3.742613   -1.638448    1.453225
     21          6           0       -2.650671   -0.380547   -1.336975
     22          9           0       -3.686989    0.125802   -2.053541
     23          9           0       -2.855735   -1.707551   -1.231844
     24          9           0       -1.545110   -0.181939   -2.090143
     25          6           0        0.662700   -0.648708   -0.342143
     26          8           0        0.189993   -1.643466   -0.890985
     27          1           0        4.132108   -2.589529   -1.653249
     28          1           0        4.222360   -1.609719   -0.177601
     29          1           0        2.885316   -2.745481   -0.401592
     30          1           0        3.406500   -0.269253   -2.140246
     31          1           0        2.075103   -1.399336   -2.361730
     32          1           0        1.687107    3.104484    2.309869
     33          1           0        2.011490    3.664670    0.649587
     34          1           0        3.267595    2.790032    1.559481
 ---------------------------------------------------------------------

 SCF Done:  E(RCAM-B3LYP) =  -1749.10629146     A.U. after   13 cycles

 Alpha  occ. eigenvalues --  -24.83900 -24.83517 -24.83481 -24.83439 -24.83113
 Alpha  occ. eigenvalues --  -24.82898 -24.82451 -24.82242 -24.81551 -19.32945
 Alpha  occ. eigenvalues --  -19.23046 -19.22759 -19.22593 -14.52168 -14.49616
 Alpha  occ. eigenvalues --  -14.49421 -10.59562 -10.55136 -10.52740 -10.48820
 Alpha  occ. eigenvalues --  -10.44844 -10.44801 -10.43788 -10.31092 -10.30710
 Alpha  occ. eigenvalues --  -10.25753  -1.43387  -1.41626  -1.38327  -1.35114
 Alpha  occ. eigenvalues --   -1.33892  -1.33368  -1.32625  -1.31973  -1.30745
 Alpha  occ. eigenvalues --   -1.21551  -1.20289  -1.16505  -1.16254  -1.08561
 Alpha  occ. eigenvalues --   -1.06321  -1.04839  -0.92758  -0.87070  -0.84159
 Alpha  occ. eigenvalues --   -0.82814  -0.82188  -0.78328  -0.77589  -0.75073
 Alpha  occ. eigenvalues --   -0.73287  -0.73149  -0.71831  -0.71114  -0.70686
 Alpha  occ. eigenvalues --   -0.69917  -0.68630  -0.67883  -0.67295  -0.64587
 Alpha  occ. eigenvalues --   -0.63637  -0.61712  -0.59536  -0.58589  -0.57311
 Alpha  occ. eigenvalues --   -0.57064  -0.56759  -0.56113  -0.55871  -0.54964
 Alpha  occ. eigenvalues --   -0.54954  -0.54726  -0.54312  -0.53954  -0.53665
 Alpha  occ. eigenvalues --   -0.53416  -0.53194  -0.52645  -0.52085  -0.51357
 Alpha  occ. eigenvalues --   -0.51285  -0.50630  -0.50385  -0.50313  -0.49820
 Alpha  occ. eigenvalues --   -0.49577  -0.48601  -0.48351  -0.47707  -0.47463
 Alpha  occ. eigenvalues --   -0.47134  -0.45998  -0.44844  -0.43631  -0.42016
 Alpha  occ. eigenvalues --   -0.39044  -0.38558  -0.37816  -0.35940  -0.35112
 Alpha  occ. eigenvalues --   -0.34797
 Alpha virt. eigenvalues --    0.01688   0.02449   0.06190   0.07132   0.12542
 Alpha virt. eigenvalues --    0.14884   0.15367   0.16928   0.17091   0.17669
 Alpha virt. eigenvalues --    0.19100   0.19571   0.20189   0.20983   0.21220

 Mulliken charges:
               1
     1  C   -0.326355
     2  C   -0.063846
     3  N   -0.569193
     4  C    0.823722
     5  O   -0.525553
     6  N   -0.569128
     7  C   -0.183388
     8  C    0.832351
     9  O   -0.509060
    10  N   -0.623699
    11  C    0.760473
    12  F   -0.275719
    13  F   -0.249548
    14  C    0.435063
    15  F   -0.271776
    16  O   -0.497134
    17  C    0.976417
    18  F   -0.238195
    19  F   -0.240694
    20  F   -0.234276
    21  C    0.817665
    22  F   -0.260821
    23  F   -0.244416
    24  F   -0.244119
    25  C    0.832979
    26  O   -0.517778
    27  H    0.126940
    28  H    0.126174
    29  H    0.126596
    30  H    0.152983
    31  H    0.153304
    32  H    0.161342
    33  H    0.155860
    34  H    0.162827
 Sum of Mulliken charges =   0.00000

 Dipole moment (field-independent basis, Debye):
    X=              2.8024    Y=              0.2069    Z=             -0.2389  Tot=              2.8201
 Quadrupole moment (field-independent basis, Debye-Ang):
   XX=           -145.4098   YY=           -142.4738   ZZ=           -139.9490
   XY=             -0.0242   XZ=              2.2676   YZ=             -0.6532

 Normal termination of Gaussian 09 at Sun Mar  3 17:53:30 2024.
