 Gaussian 09, Revision D.01,
 Gaussian 09:  ES64L-G09RevD.01 24-Apr-2013

 ----------------------------------------------------------------------
 #p CAM-B3LYP/6-31G(d,p) SCRF=(PCM,Solvent=Generic,Read) NoSymm out=wfn
 ----------------------------------------------------------------------

 -------------------
 Title A230421850_p1
 -------------------
 Symbolic Z-matrix:
 Charge =  1 Multiplicity = 2

                          Input orientation:
 ---------------------------------------------------------------------
 Center     Atomic      Atomic             Coordinates (Angstroms)
 Number     Number       Type             X           Y           Z
 ---------------------------------------------------------------------
      1          6           0       -0.188180    3.624549   -1.626074
      2          6           0        0.251576    2.983107   -0.317485
      3          7           0        0.089934    1.527801   -0.349170
      4          6           0       -1.123598    0.993536    0.025841
      5          8           0       -2.051743    1.709451    0.389221
      6          7           0       -1.244987   -0.365466   -0.027922
      7          6           0       -2.419440   -1.029401    0.530091
      8          9           0       -2.171439   -1.270817    1.850465
      9          9           0       -2.485822   -2.275731   -0.043003
     10          6           0       -3.865332   -0.450655    0.397094
     11          9           0       -4.748695   -1.416775    0.830671
     12          8           0       -4.242870    0.719826    1.119620
     13          6           0       -4.011688    0.625486    2.501773
     14          9           0       -4.394222   -0.566389    2.988254
     15          9           0       -4.719913    1.589469    3.121314
     16          9           0       -2.707088    0.819694    2.766709
     17          6           0       -4.131804   -0.271740   -1.098575
     18          9           0       -4.012844   -1.433607   -1.782903
     19          9           0       -3.279890    0.600233   -1.686703
     20          9           0       -5.385175    0.189825   -1.330852
     21          6           0       -0.111421   -1.143223   -0.138221
     22          8           0       -0.013225   -2.249923    0.382725
     23          7           0        0.928091   -0.589886   -0.841727
     24          6           0        2.063865   -1.445883   -1.160601
     25          9           0        2.693694   -0.935730   -2.258917
     26          9           0        1.580341   -2.641909   -1.605528
     27          6           0        3.091239   -1.670335   -0.018303
     28          9           0        2.497591   -2.366066    0.994185
     29          8           0        3.457003   -0.411309    0.557832
     30          6           0        4.557586   -0.495523    1.423955
     31          9           0        4.445938   -1.547551    2.248441
     32          9           0        4.603646    0.629720    2.161177
     33          9           0        5.685908   -0.586093    0.702910
     34          6           0        4.211444   -2.514950   -0.642850
     35          9           0        4.905265   -1.822834   -1.574259
     36          9           0        3.755467   -3.641004   -1.232942
     37          9           0        5.109888   -2.915429    0.289461
     38          6           0        1.132290    0.765039   -0.837571
     39          8           0        2.184793    1.277750   -1.213507
     40          1           0        0.400594    3.246374   -2.468117
     41          1           0       -1.242027    3.413106   -1.834673
     42          1           0       -0.059792    4.710233   -1.578924
     43          1           0       -0.335347    3.399774    0.508907
     44          1           0        1.300386    3.233256   -0.121819
 ---------------------------------------------------------------------

 SCF Done:  E(UCAM-B3LYP) =  -2834.76110445     A.U. after   70 cycles

 Alpha  occ. eigenvalues --  -24.89904 -24.88571 -24.87063 -24.86936 -24.86897
 Alpha  occ. eigenvalues --  -24.86780 -24.86547 -24.86400 -24.86295 -24.86272
 Alpha  occ. eigenvalues --  -24.86025 -24.85997 -24.85749 -24.85590 -24.85549
 Alpha  occ. eigenvalues --  -24.85543 -24.85456 -24.85353 -19.46317 -19.37525
 Alpha  occ. eigenvalues --  -19.35817 -19.34374 -19.33836 -14.62827 -14.61170
 Alpha  occ. eigenvalues --  -14.60479 -10.62894 -10.61910 -10.59801 -10.58696
 Alpha  occ. eigenvalues --  -10.58688 -10.58387 -10.58371 -10.54808 -10.54408
 Alpha  occ. eigenvalues --  -10.53660 -10.52895 -10.38297 -10.30603  -1.46388
 Alpha  occ. eigenvalues --   -1.45636  -1.45386  -1.44694  -1.44228  -1.43046
 Alpha  occ. eigenvalues --   -1.39811  -1.38117  -1.38028  -1.36930  -1.36449
 Alpha  occ. eigenvalues --   -1.36223  -1.36149  -1.35727  -1.35428  -1.35419
 Alpha  occ. eigenvalues --   -1.35001  -1.34966  -1.34734  -1.30551  -1.27193
 Alpha  occ. eigenvalues --   -1.24921  -1.23358  -1.20943  -1.17113  -1.16167
 Alpha  occ. eigenvalues --   -0.98886  -0.97546  -0.94593  -0.92072  -0.91866
 Alpha  occ. eigenvalues --   -0.87393  -0.86184  -0.85427  -0.84383  -0.83523
 Alpha  occ. eigenvalues --   -0.81550  -0.79638  -0.78607  -0.77319  -0.76497
 Alpha  occ. eigenvalues --   -0.76350  -0.75126  -0.74454  -0.73678  -0.73529
 Alpha  occ. eigenvalues --   -0.72751  -0.72419  -0.72299  -0.72088  -0.71859
 Alpha  occ. eigenvalues --   -0.71478  -0.70832  -0.70629  -0.70253  -0.69787
 Alpha  occ. eigenvalues --   -0.69560  -0.69338  -0.68239  -0.65709  -0.65264
 Alpha  occ. eigenvalues --   -0.64317  -0.63895  -0.63714  -0.62939  -0.62670
 Alpha  occ. eigenvalues --   -0.61082  -0.60766  -0.60408  -0.60225  -0.59890
 Alpha  occ. eigenvalues --   -0.59656  -0.59395  -0.59215  -0.58801  -0.58717
 Alpha  occ. eigenvalues --   -0.58556  -0.58131  -0.57804  -0.57487  -0.57274
 Alpha  occ. eigenvalues --   -0.57242  -0.56907  -0.56710  -0.56377  -0.56028
 Alpha  occ. eigenvalues --   -0.55714  -0.55418  -0.55022  -0.54967  -0.54844
 Alpha  occ. eigenvalues --   -0.54552  -0.54053  -0.53910  -0.53666  -0.53445
 Alpha  occ. eigenvalues --   -0.52967  -0.52902  -0.52555  -0.52323  -0.51978
 Alpha  occ. eigenvalues --   -0.51854  -0.51668  -0.51605  -0.50629  -0.49700
 Alpha  occ. eigenvalues --   -0.49361  -0.48621  -0.48048  -0.47733  -0.47345
 Alpha  occ. eigenvalues --   -0.46668  -0.45583  -0.45079
 Alpha virt. eigenvalues --   -0.10639  -0.07550  -0.00557   0.00576   0.01766
 Alpha virt. eigenvalues --    0.04200   0.06219   0.07845   0.08499   0.09814
 Alpha virt. eigenvalues --    0.10945   0.12355   0.12895   0.13171   0.13945

  Beta  occ. eigenvalues --  -24.89822 -24.88561 -24.87060 -24.86931 -24.86897
  Beta  occ. eigenvalues --  -24.86778 -24.86546 -24.86400 -24.86295 -24.86271
  Beta  occ. eigenvalues --  -24.86025 -24.85997 -24.85748 -24.85589 -24.85548
  Beta  occ. eigenvalues --  -24.85543 -24.85456 -24.85353 -19.44421 -19.37514
  Beta  occ. eigenvalues --  -19.35779 -19.33909 -19.33584 -14.62736 -14.61059
  Beta  occ. eigenvalues --  -14.60461 -10.62894 -10.61911 -10.59806 -10.58833
  Beta  occ. eigenvalues --  -10.58688 -10.58387 -10.58373 -10.54834 -10.54449
  Beta  occ. eigenvalues --  -10.53662 -10.52896 -10.38269 -10.30604  -1.46367
  Beta  occ. eigenvalues --   -1.45569  -1.45381  -1.44693  -1.44201  -1.43041
  Beta  occ. eigenvalues --   -1.39792  -1.38024  -1.37923  -1.36449  -1.36219
  Beta  occ. eigenvalues --   -1.36149  -1.35728  -1.35427  -1.35417  -1.34999
  Beta  occ. eigenvalues --   -1.34971  -1.34734  -1.34280  -1.29526  -1.26649
  Beta  occ. eigenvalues --   -1.24890  -1.23283  -1.19959  -1.16709  -1.15779
  Beta  occ. eigenvalues --   -0.98859  -0.97495  -0.94422  -0.91697  -0.91450
  Beta  occ. eigenvalues --   -0.86897  -0.86096  -0.85264  -0.83702  -0.83347
  Beta  occ. eigenvalues --   -0.81468  -0.79579  -0.78522  -0.77242  -0.76472
  Beta  occ. eigenvalues --   -0.76289  -0.75107  -0.74317  -0.73646  -0.73445
  Beta  occ. eigenvalues --   -0.72721  -0.72341  -0.72061  -0.71854  -0.71627
  Beta  occ. eigenvalues --   -0.70839  -0.70600  -0.70265  -0.70139  -0.69649
  Beta  occ. eigenvalues --   -0.69511  -0.69242  -0.68174  -0.65409  -0.64745
  Beta  occ. eigenvalues --   -0.63867  -0.63530  -0.62807  -0.62598  -0.61427
  Beta  occ. eigenvalues --   -0.60722  -0.60720  -0.60345  -0.60165  -0.59704
  Beta  occ. eigenvalues --   -0.59563  -0.59195  -0.59000  -0.58755  -0.58619
  Beta  occ. eigenvalues --   -0.57989  -0.57825  -0.57531  -0.57243  -0.57213
  Beta  occ. eigenvalues --   -0.56872  -0.56630  -0.56388  -0.56071  -0.55657
  Beta  occ. eigenvalues --   -0.55361  -0.55020  -0.54937  -0.54773  -0.54500
  Beta  occ. eigenvalues --   -0.54035  -0.53714  -0.53636  -0.53394  -0.52959
  Beta  occ. eigenvalues --   -0.52896  -0.52559  -0.52318  -0.51876  -0.51826
  Beta  occ. eigenvalues --   -0.51636  -0.51307  -0.50057  -0.49460  -0.49181
  Beta  occ. eigenvalues --   -0.48356  -0.47717  -0.47463  -0.46778  -0.45381
  Beta  occ. eigenvalues --   -0.44335  -0.43883
  Beta virt. eigenvalues --   -0.31454  -0.10342  -0.07421  -0.00526   0.00628
  Beta virt. eigenvalues --    0.01799   0.04266   0.06261   0.07925   0.08685
  Beta virt. eigenvalues --    0.09891   0.11112   0.12416   0.13005   0.13224

 Mulliken charges and spin densities:
               1          2
     1  C   -0.330871   0.000136
     2  C   -0.126925   0.009144
     3  N   -0.580279   0.050836
     4  C    0.916643  -0.028361
     5  O   -0.409537   0.173215
     6  N   -0.625552   0.008054
     7  C    0.773973  -0.000835
     8  F   -0.247485   0.000463
     9  F   -0.257214   0.000692
    10  C    0.411488  -0.001199
    11  F   -0.261001   0.000228
    12  O   -0.485784   0.011151
    13  C    1.006179  -0.000603
    14  F   -0.239137   0.000316
    15  F   -0.233815   0.000066
    16  F   -0.248987   0.000346
    17  C    0.814164   0.000052
    18  F   -0.237324   0.000027
    19  F   -0.244867   0.000201
    20  F   -0.239963  -0.000006
    21  C    0.872876  -0.017670
    22  O   -0.378000   0.094107
    23  N   -0.636813   0.037790
    24  C    0.741718  -0.005288
    25  F   -0.233418   0.019487
    26  F   -0.234178   0.002874
    27  C    0.449105   0.000195
    28  F   -0.240676   0.001451
    29  O   -0.528790   0.003069
    30  C    1.007777  -0.000095
    31  F   -0.234369   0.000248
    32  F   -0.233700   0.000006
    33  F   -0.235386  -0.000002
    34  C    0.825051  -0.000034
    35  F   -0.241451   0.000069
    36  F   -0.236126   0.000028
    37  F   -0.249345  -0.000007
    38  C    0.974530  -0.071480
    39  O   -0.204289   0.707728
    40  H    0.140929   0.000434
    41  H    0.152978   0.000977
    42  H    0.167865   0.000650
    43  H    0.208328   0.001769
    44  H    0.191680  -0.000230
 Sum of Mulliken charges =   1.00000   1.00000

 Dipole moment (field-independent basis, Debye):
    X=              3.1863    Y=              5.8868    Z=             -2.9216  Tot=              7.3036
 Quadrupole moment (field-independent basis, Debye-Ang):
   XX=           -193.0723   YY=           -187.2003   ZZ=           -197.9407
   XY=              1.7598   XZ=             -0.8680   YZ=             -2.3537

 Normal termination of Gaussian 09 at Sun Mar  3 18:14:29 2024.
