 Gaussian 09, Revision D.01,
 Gaussian 09:  ES64L-G09RevD.01 24-Apr-2013

 ----------------------------------------------------------------------
 #p CAM-B3LYP/6-31G(d,p) SCRF=(PCM,Solvent=Generic,Read) NoSymm out=wfn
 ----------------------------------------------------------------------

 ------------------
 Title A230421850_0
 ------------------
 Symbolic Z-matrix:
 Charge =  0 Multiplicity = 1

                          Input orientation:
 ---------------------------------------------------------------------
 Center     Atomic      Atomic             Coordinates (Angstroms)
 Number     Number       Type             X           Y           Z
 ---------------------------------------------------------------------
      1          6           0        0.896527    4.364474   -0.904086
      2          6           0        0.113114    3.913923    0.321610
      3          7           0       -0.023906    2.457419    0.378162
      4          6           0       -1.092777    1.874639   -0.278689
      5          8           0       -1.845296    2.543576   -0.984457
      6          7           0       -1.217493    0.513617   -0.126553
      7          6           0       -2.373100   -0.098440   -0.784548
      8          9           0       -2.179935   -0.067285   -2.129861
      9          9           0       -3.446980    0.711910   -0.533160
     10          6           0       -2.798612   -1.526090   -0.341080
     11          9           0       -1.968817   -2.457817   -0.890264
     12          8           0       -2.650982   -1.621165    1.085395
     13          6           0       -3.184389   -2.814439    1.604337
     14          9           0       -2.854191   -3.873021    0.852223
     15          9           0       -2.696917   -2.987466    2.846538
     16          9           0       -4.519899   -2.697844    1.681236
     17          6           0       -4.209573   -1.737731   -0.910728
     18          9           0       -4.283159   -1.473557   -2.232904
     19          9           0       -5.129692   -0.968195   -0.286087
     20          9           0       -4.615150   -3.021675   -0.752843
     21          6           0       -0.089875   -0.224022    0.097078
     22          8           0        0.066004   -1.341251   -0.380738
     23          7           0        0.890349    0.365851    0.853406
     24          6           0        2.003006   -0.462018    1.301603
     25          9           0        1.450447   -1.621600    1.782440
     26          9           0        2.560843    0.079268    2.423855
     27          6           0        3.127142   -0.836331    0.296629
     28          9           0        3.990384   -1.709236    0.908221
     29          8           0        2.657234   -1.442181   -0.913957
     30          6           0        2.711816   -2.846113   -0.863263
     31          9           0        3.989811   -3.249448   -0.985707
     32          9           0        2.010958   -3.339140   -1.901935
     33          9           0        2.191658   -3.318957    0.279413
     34          6           0        3.920314    0.408540   -0.072556
     35          9           0        4.951794    0.087990   -0.897338
     36          9           0        3.157684    1.296460   -0.755798
     37          9           0        4.455474    1.036413    0.991558
     38          6           0        1.006721    1.727428    0.930227
     39          8           0        2.000963    2.268535    1.407963
     40          1           0        1.907436    3.944170   -0.904265
     41          1           0        0.403703    4.045537   -1.828120
     42          1           0        0.980454    5.455423   -0.920417
     43          1           0        0.618776    4.266443    1.227844
     44          1           0       -0.881871    4.373404    0.309619
 ---------------------------------------------------------------------

 SCF Done:  E(RCAM-B3LYP) =  -2835.10576354     A.U. after   13 cycles

 Alpha  occ. eigenvalues --  -24.84009 -24.83996 -24.83931 -24.83818 -24.83690
 Alpha  occ. eigenvalues --  -24.83656 -24.83343 -24.83204 -24.83184 -24.83116
 Alpha  occ. eigenvalues --  -24.82972 -24.82958 -24.82926 -24.82855 -24.82682
 Alpha  occ. eigenvalues --  -24.82536 -24.82294 -24.82290 -19.33598 -19.32461
 Alpha  occ. eigenvalues --  -19.25439 -19.24362 -19.23925 -14.53456 -14.53217
 Alpha  occ. eigenvalues --  -14.50817 -10.59922 -10.59082 -10.55599 -10.55346
 Alpha  occ. eigenvalues --  -10.53730 -10.53586 -10.49373 -10.49231 -10.47380
 Alpha  occ. eigenvalues --  -10.46043 -10.45900 -10.32177 -10.26395  -1.43526
 Alpha  occ. eigenvalues --   -1.42514  -1.41912  -1.41798  -1.39200  -1.39084
 Alpha  occ. eigenvalues --   -1.36103  -1.35457  -1.33810  -1.33577  -1.33143
 Alpha  occ. eigenvalues --   -1.32974  -1.32877  -1.32394  -1.32261  -1.32124
 Alpha  occ. eigenvalues --   -1.31975  -1.31373  -1.23992  -1.20916  -1.20273
 Alpha  occ. eigenvalues --   -1.18616  -1.18124  -1.10609  -1.08936  -1.06839
 Alpha  occ. eigenvalues --   -0.94154  -0.93533  -0.88098  -0.85734  -0.84503
 Alpha  occ. eigenvalues --   -0.82243  -0.80676  -0.80262  -0.79361  -0.77367
 Alpha  occ. eigenvalues --   -0.76210  -0.74812  -0.74262  -0.73091  -0.72496
 Alpha  occ. eigenvalues --   -0.71464  -0.71057  -0.70725  -0.70617  -0.69950
 Alpha  occ. eigenvalues --   -0.69235  -0.69036  -0.68819  -0.68299  -0.67743
 Alpha  occ. eigenvalues --   -0.67543  -0.66700  -0.66406  -0.66074  -0.65347
 Alpha  occ. eigenvalues --   -0.64545  -0.62732  -0.60385  -0.59965  -0.58668
 Alpha  occ. eigenvalues --   -0.57897  -0.57770  -0.57213  -0.57090  -0.56789
 Alpha  occ. eigenvalues --   -0.56390  -0.56090  -0.56049  -0.55927  -0.55656
 Alpha  occ. eigenvalues --   -0.55194  -0.55144  -0.54786  -0.54748  -0.54491
 Alpha  occ. eigenvalues --   -0.54289  -0.53943  -0.53661  -0.53433  -0.53313
 Alpha  occ. eigenvalues --   -0.52843  -0.52767  -0.52399  -0.52097  -0.51959
 Alpha  occ. eigenvalues --   -0.51712  -0.51551  -0.51209  -0.50847  -0.50794
 Alpha  occ. eigenvalues --   -0.50666  -0.50491  -0.50431  -0.50058  -0.49796
 Alpha  occ. eigenvalues --   -0.49429  -0.49291  -0.49049  -0.48911  -0.48779
 Alpha  occ. eigenvalues --   -0.48124  -0.47184  -0.46210  -0.45599  -0.44635
 Alpha  occ. eigenvalues --   -0.43357  -0.43027  -0.41396  -0.40280  -0.39133
 Alpha  occ. eigenvalues --   -0.38517  -0.36589  -0.36291
 Alpha virt. eigenvalues --   -0.00495   0.00627   0.05685   0.06626   0.06855
 Alpha virt. eigenvalues --    0.07445   0.09297   0.13731   0.14831   0.16219
 Alpha virt. eigenvalues --    0.16880   0.17000   0.18037   0.18979   0.19316

 Mulliken charges:
               1
     1  C   -0.332224
     2  C   -0.063815
     3  N   -0.580104
     4  C    0.819637
     5  O   -0.479505
     6  N   -0.642670
     7  C    0.800243
     8  F   -0.249655
     9  F   -0.267235
    10  C    0.406193
    11  F   -0.247789
    12  O   -0.520717
    13  C    0.994845
    14  F   -0.235929
    15  F   -0.238648
    16  F   -0.242771
    17  C    0.816138
    18  F   -0.240987
    19  F   -0.246421
    20  F   -0.257845
    21  C    0.825606
    22  O   -0.463684
    23  N   -0.633883
    24  C    0.757133
    25  F   -0.263712
    26  F   -0.244299
    27  C    0.431596
    28  F   -0.270133
    29  O   -0.524876
    30  C    1.027826
    31  F   -0.250650
    32  F   -0.244646
    33  F   -0.248868
    34  C    0.816979
    35  F   -0.253304
    36  F   -0.251573
    37  F   -0.233332
    38  C    0.829544
    39  O   -0.498100
    40  H    0.129465
    41  H    0.132110
    42  H    0.127814
    43  H    0.157302
    44  H    0.154944
 Sum of Mulliken charges =   0.00000

 Dipole moment (field-independent basis, Debye):
    X=             -0.3647    Y=              2.1468    Z=              1.0148  Tot=              2.4024
 Quadrupole moment (field-independent basis, Debye-Ang):
   XX=           -218.2404   YY=           -201.5395   ZZ=           -209.9923
   XY=              1.7842   XZ=             -6.9074   YZ=             -0.1826

 Normal termination of Gaussian 09 at Tue Mar  5 17:35:30 2024.
