 Gaussian 09, Revision D.01,
 Gaussian 09:  ES64L-G09RevD.01 24-Apr-2013

 ----------------------------------------------------------------------
 #p CAM-B3LYP/6-31G(d,p) SCRF=(PCM,Solvent=Generic,Read) NoSymm out=wfn
 ----------------------------------------------------------------------

 ----------------
 Title finalTAG_0
 ----------------
 Symbolic Z-matrix:
 Charge =  0 Multiplicity = 1

                          Input orientation:
 ---------------------------------------------------------------------
 Center     Atomic      Atomic             Coordinates (Angstroms)
 Number     Number       Type             X           Y           Z
 ---------------------------------------------------------------------
      1          8           0       -3.152312    0.204000   -0.234800
      2          6           0       -1.939128    0.167083   -0.365129
      3          7           0       -1.084621    1.260344   -0.291455
      4          6           0       -1.522894    2.604584    0.019926
      5          6           0       -1.583006    2.826913    1.533269
      6          6           0       -2.081966    4.212042    1.959108
      7          6           0       -1.171760    5.358378    1.522431
      8          9           0        0.117317    5.060344    1.847924
      9          9           0       -1.205130    5.444684    0.163924
     10          6           0       -1.576217    6.710402    2.166526
     11          9           0       -2.840864    7.060803    1.808122
     12          9           0       -1.627754    6.545776    3.523258
     13          8           0       -0.744831    7.828332    1.970460
     14          6           0       -0.520885    8.061825    0.612255
     15          9           0       -1.633410    7.887885   -0.120486
     16          9           0        0.453915    7.248052    0.165812
     17          9           0       -0.106642    9.334596    0.460167
     18          6           0        0.261173    0.911035   -0.682328
     19          6           0        0.206286   -0.635377   -0.823028
     20          7           0       -1.186319   -0.966596   -0.662848
     21          6           0       -1.777834   -2.200638   -1.145030
     22          6           0       -2.125670   -2.117171   -2.633915
     23          6           0       -2.433401   -3.472253   -3.283718
     24          6           0       -3.633572   -4.204603   -2.683201
     25          9           0       -3.360602   -4.511538   -1.385894
     26          9           0       -4.692849   -3.356315   -2.667671
     27          6           0       -3.972311   -5.501487   -3.465161
     28          9           0       -4.273055   -5.223648   -4.762247
     29          9           0       -2.837509   -6.264376   -3.527790
     30          8           0       -4.960370   -6.366990   -2.964870
     31          6           0       -6.161911   -5.685859   -2.746049
     32          9           0       -7.160546   -6.589889   -2.688774
     33          9           0       -6.432801   -4.816030   -3.734336
     34          9           0       -6.108048   -5.043905   -1.566356
     35          7           0        1.064969   -1.101836    0.240215
     36          6           0        1.320070   -2.492818    0.547528
     37          6           0        0.498795   -2.955518    1.752039
     38          6           0        0.826673   -4.400369    2.132525
     39          6           0       -0.015926   -4.874013    3.313255
     40          9           0        0.172316   -4.027325    4.363341
     41          9           0       -1.333213   -4.779876    2.974391
     42          6           0        0.318372   -6.318631    3.726954
     43          9           0        1.630511   -6.408729    4.065902
     44          9           0        0.122153   -7.155968    2.675707
     45          8           0       -0.448054   -6.740832    4.828263
     46          6           0       -0.378422   -8.131445    4.939052
     47          9           0        0.877576   -8.590770    4.796425
     48          9           0       -0.816257   -8.480810    6.166668
     49          9           0       -1.183186   -8.712021    4.026971
     50          6           0        1.742280   -0.050828    0.845831
     51          8           0        2.641659   -0.160764    1.662553
     52          7           0        1.263921    1.146821    0.324609
     53          6           0        1.959426    2.406384    0.501439
     54          6           0        3.093509    2.582005   -0.511500
     55          6           0        3.891401    3.854149   -0.226799
     56          6           0        5.149279    4.028230   -1.079896
     57          9           0        5.961759    2.950708   -0.898068
     58          9           0        5.825825    5.093394   -0.560870
     59          6           0        4.890851    4.250716   -2.593198
     60          9           0        4.175269    3.192375   -3.077600
     61          9           0        4.088168    5.330238   -2.794270
     62          8           0        5.989083    4.357453   -3.465737
     63          6           0        6.878361    5.352941   -3.055041
     64          9           0        6.236757    6.444834   -2.605781
     65          9           0        7.634767    5.711058   -4.112622
     66          9           0        7.693939    4.867287   -2.102665
     67          1           0       -2.525210    2.745875   -0.402850
     68          1           0       -0.851429    3.304120   -0.483051
     69          1           0       -0.597152    2.643811    1.979273
     70          1           0       -2.248588    2.074436    1.975445
     71          1           0       -2.158862    4.205391    3.052945
     72          1           0       -3.090340    4.371657    1.560064
     73          1           0        0.516456    1.398173   -1.629545
     74          1           0        0.592265   -0.969872   -1.792076
     75          1           0       -2.688422   -2.383357   -0.563750
     76          1           0       -1.081189   -3.020714   -0.953400
     77          1           0       -1.286093   -1.668709   -3.179714
     78          1           0       -2.973626   -1.434558   -2.775823
     79          1           0       -1.541866   -4.106324   -3.211814
     80          1           0       -2.622078   -3.290629   -4.348188
     81          1           0        2.388079   -2.597115    0.777898
     82          1           0        1.113594   -3.100740   -0.340154
     83          1           0        0.696219   -2.297797    2.608276
     84          1           0       -0.570447   -2.863427    1.529512
     85          1           0        0.644850   -5.048481    1.267694
     86          1           0        1.891490   -4.471648    2.385526
     87          1           0        2.368732    2.422793    1.518707
     88          1           0        1.243459    3.227748    0.417112
     89          1           0        2.661620    2.617532   -1.516466
     90          1           0        3.759425    1.711034   -0.480388
     91          1           0        4.207385    3.838872    0.823719
     92          1           0        3.248623    4.735488   -0.336668
 ---------------------------------------------------------------------

 SCF Done:  E(RCAM-B3LYP) =  -4547.27316405     A.U. after   13 cycles

 Alpha  occ. eigenvalues --  -24.83526 -24.83394 -24.83353 -24.83148 -24.83041
 Alpha  occ. eigenvalues --  -24.83033 -24.82883 -24.82864 -24.82843 -24.82763
 Alpha  occ. eigenvalues --  -24.82728 -24.82591 -24.82399 -24.82341 -24.82112
 Alpha  occ. eigenvalues --  -24.81986 -24.81977 -24.81916 -24.81854 -24.81837
 Alpha  occ. eigenvalues --  -24.81273 -24.81260 -24.80932 -24.80803 -24.80523
 Alpha  occ. eigenvalues --  -24.80229 -24.80162 -24.80080 -19.32368 -19.32295
 Alpha  occ. eigenvalues --  -19.32253 -19.31954 -19.19269 -19.19161 -14.43855
 Alpha  occ. eigenvalues --  -14.43730 -14.43689 -14.43534 -10.59213 -10.59059
 Alpha  occ. eigenvalues --  -10.59051 -10.58791 -10.52675 -10.52646 -10.52481
 Alpha  occ. eigenvalues --  -10.52229 -10.46708 -10.46504 -10.46416 -10.45815
 Alpha  occ. eigenvalues --  -10.39428 -10.39354 -10.35515 -10.35486 -10.30731
 Alpha  occ. eigenvalues --  -10.30539 -10.30421 -10.30282 -10.28885 -10.28795
 Alpha  occ. eigenvalues --  -10.28698 -10.28442 -10.27536 -10.27174 -10.27102
 Alpha  occ. eigenvalues --  -10.26910  -1.42850  -1.42658  -1.42633  -1.42441
 Alpha  occ. eigenvalues --   -1.38560  -1.38521  -1.38434  -1.38324  -1.36420
 Alpha  occ. eigenvalues --   -1.36142  -1.35712  -1.35258  -1.33396  -1.33242
 Alpha  occ. eigenvalues --   -1.33224  -1.32898  -1.32701  -1.32522  -1.32467
 Alpha  occ. eigenvalues --   -1.32180  -1.31495  -1.31189  -1.31138  -1.31009
 Alpha  occ. eigenvalues --   -1.30129  -1.29892  -1.29380  -1.29082  -1.20561
 Alpha  occ. eigenvalues --   -1.20458  -1.20414  -1.20214  -1.15210  -1.13450
 Alpha  occ. eigenvalues --   -1.07943  -1.03071  -1.02618  -0.98762  -0.91828
 Alpha  occ. eigenvalues --   -0.91407  -0.91159  -0.90921  -0.88363  -0.87369
 Alpha  occ. eigenvalues --   -0.86743  -0.86324  -0.84642  -0.83409  -0.82688
 Alpha  occ. eigenvalues --   -0.81839  -0.81196  -0.79429  -0.79044  -0.78165
 Alpha  occ. eigenvalues --   -0.76979  -0.75368  -0.75073  -0.74933  -0.73973
 Alpha  occ. eigenvalues --   -0.72627  -0.71683  -0.71338  -0.71141  -0.71002
 Alpha  occ. eigenvalues --   -0.70949  -0.70636  -0.70534  -0.70132  -0.70011
 Alpha  occ. eigenvalues --   -0.69954  -0.69840  -0.69706  -0.69620  -0.69285
 Alpha  occ. eigenvalues --   -0.68813  -0.68718  -0.67436  -0.67296  -0.66970
 Alpha  occ. eigenvalues --   -0.66790  -0.66091  -0.66009  -0.65919  -0.65881
 Alpha  occ. eigenvalues --   -0.64420  -0.64380  -0.63693  -0.63569  -0.63055
 Alpha  occ. eigenvalues --   -0.62864  -0.62354  -0.61252  -0.60992  -0.60759
 Alpha  occ. eigenvalues --   -0.60567  -0.60335  -0.60207  -0.60019  -0.59852
 Alpha  occ. eigenvalues --   -0.59715  -0.58002  -0.56995  -0.56889  -0.56732
 Alpha  occ. eigenvalues --   -0.56661  -0.56320  -0.56186  -0.55907  -0.55697
 Alpha  occ. eigenvalues --   -0.55566  -0.55438  -0.55380  -0.55117  -0.55039
 Alpha  occ. eigenvalues --   -0.54669  -0.54527  -0.54292  -0.54016  -0.53919
 Alpha  occ. eigenvalues --   -0.53758  -0.53688  -0.53530  -0.53473  -0.53412
 Alpha  occ. eigenvalues --   -0.53075  -0.52820  -0.52680  -0.52593  -0.52548
 Alpha  occ. eigenvalues --   -0.52480  -0.52425  -0.52026  -0.51682  -0.51467
 Alpha  occ. eigenvalues --   -0.51380  -0.51290  -0.51237  -0.51102  -0.50934
 Alpha  occ. eigenvalues --   -0.50653  -0.50526  -0.50400  -0.50310  -0.50252
 Alpha  occ. eigenvalues --   -0.50240  -0.50123  -0.50091  -0.50007  -0.49903
 Alpha  occ. eigenvalues --   -0.49581  -0.49451  -0.49313  -0.49194  -0.49175
 Alpha  occ. eigenvalues --   -0.49096  -0.49037  -0.48863  -0.48735  -0.48608
 Alpha  occ. eigenvalues --   -0.48485  -0.48284  -0.48236  -0.47884  -0.47825
 Alpha  occ. eigenvalues --   -0.47673  -0.47558  -0.47270  -0.46721  -0.46285
 Alpha  occ. eigenvalues --   -0.45970  -0.45752  -0.45589  -0.45377  -0.44992
 Alpha  occ. eigenvalues --   -0.44946  -0.44683  -0.44601  -0.44087  -0.43543
 Alpha  occ. eigenvalues --   -0.43233  -0.43145  -0.41936  -0.41822  -0.41489
 Alpha  occ. eigenvalues --   -0.41314  -0.41012  -0.40777  -0.40349  -0.40249
 Alpha  occ. eigenvalues --   -0.34788  -0.33926  -0.32799  -0.31996  -0.30141
 Alpha  occ. eigenvalues --   -0.29143
 Alpha virt. eigenvalues --    0.09031   0.09948   0.10385   0.10619   0.10895
 Alpha virt. eigenvalues --    0.11559   0.11688   0.11904   0.12280   0.12465
 Alpha virt. eigenvalues --    0.12716   0.13159   0.14186   0.15277   0.15819

 Mulliken charges:
               1
     1  O   -0.570293
     2  C    0.786010
     3  N   -0.497653
     4  C   -0.058488
     5  C   -0.201598
     6  C   -0.261677
     7  C    0.548433
     8  F   -0.282709
     9  F   -0.283057
    10  C    0.746266
    11  F   -0.260403
    12  F   -0.269945
    13  O   -0.494568
    14  C    0.978169
    15  F   -0.243532
    16  F   -0.247606
    17  F   -0.244057
    18  C    0.193182
    19  C    0.191768
    20  N   -0.506656
    21  C   -0.053293
    22  C   -0.210957
    23  C   -0.260760
    24  C    0.551762
    25  F   -0.279154
    26  F   -0.282385
    27  C    0.743459
    28  F   -0.260537
    29  F   -0.275123
    30  O   -0.495243
    31  C    0.978235
    32  F   -0.245093
    33  F   -0.243794
    34  F   -0.242588
    35  N   -0.496970
    36  C   -0.058294
    37  C   -0.196789
    38  C   -0.255859
    39  C    0.539000
    40  F   -0.284687
    41  F   -0.285435
    42  C    0.774217
    43  F   -0.266181
    44  F   -0.269609
    45  O   -0.516628
    46  C    0.986815
    47  F   -0.246673
    48  F   -0.247877
    49  F   -0.248538
    50  C    0.790597
    51  O   -0.570716
    52  N   -0.507398
    53  C   -0.058961
    54  C   -0.209040
    55  C   -0.262767
    56  C    0.545298
    57  F   -0.279524
    58  F   -0.289292
    59  C    0.738323
    60  F   -0.264790
    61  F   -0.259773
    62  O   -0.494632
    63  C    0.979408
    64  F   -0.244015
    65  F   -0.246197
    66  F   -0.243400
    67  H    0.134287
    68  H    0.121395
    69  H    0.127563
    70  H    0.135059
    71  H    0.149456
    72  H    0.148413
    73  H    0.138974
    74  H    0.136252
    75  H    0.148769
    76  H    0.115022
    77  H    0.118616
    78  H    0.137732
    79  H    0.141466
    80  H    0.146827
    81  H    0.136187
    82  H    0.118626
    83  H    0.134403
    84  H    0.126919
    85  H    0.138061
    86  H    0.144745
    87  H    0.141306
    88  H    0.117224
    89  H    0.119969
    90  H    0.130634
    91  H    0.153551
    92  H    0.142815
 Sum of Mulliken charges =   0.00000

 Dipole moment (field-independent basis, Debye):
    X=              0.9476    Y=              0.8362    Z=             -4.5583  Tot=              4.7302
 Quadrupole moment (field-independent basis, Debye-Ang):
   XX=           -400.7691   YY=           -386.1902   ZZ=           -368.8409
   XY=            -22.9325   XZ=             -1.5787   YZ=             16.2195

 Normal termination of Gaussian 09 at Thu Jan 30 13:12:09 2025.
