 Gaussian 09, Revision D.01,
 Gaussian 09:  ES64L-G09RevD.01 24-Apr-2013

 ----------------------------------------------------------------------
 #p CAM-B3LYP/6-31G(d,p) SCRF=(PCM,Solvent=Generic,Read) NoSymm out=wfn
 ----------------------------------------------------------------------

 -----------------
 Title finalTAG_p1
 -----------------
 Symbolic Z-matrix:
 Charge =  1 Multiplicity = 2

                          Input orientation:
 ---------------------------------------------------------------------
 Center     Atomic      Atomic             Coordinates (Angstroms)
 Number     Number       Type             X           Y           Z
 ---------------------------------------------------------------------
      1          8           0       -3.152312    0.204000   -0.234800
      2          6           0       -1.939128    0.167083   -0.365129
      3          7           0       -1.084621    1.260344   -0.291455
      4          6           0       -1.522894    2.604584    0.019926
      5          6           0       -1.583006    2.826913    1.533269
      6          6           0       -2.081966    4.212042    1.959108
      7          6           0       -1.171760    5.358378    1.522431
      8          9           0        0.117317    5.060344    1.847924
      9          9           0       -1.205130    5.444684    0.163924
     10          6           0       -1.576217    6.710402    2.166526
     11          9           0       -2.840864    7.060803    1.808122
     12          9           0       -1.627754    6.545776    3.523258
     13          8           0       -0.744831    7.828332    1.970460
     14          6           0       -0.520885    8.061825    0.612255
     15          9           0       -1.633410    7.887885   -0.120486
     16          9           0        0.453915    7.248052    0.165812
     17          9           0       -0.106642    9.334596    0.460167
     18          6           0        0.261173    0.911035   -0.682328
     19          6           0        0.206286   -0.635377   -0.823028
     20          7           0       -1.186319   -0.966596   -0.662848
     21          6           0       -1.777834   -2.200638   -1.145030
     22          6           0       -2.125670   -2.117171   -2.633915
     23          6           0       -2.433401   -3.472253   -3.283718
     24          6           0       -3.633572   -4.204603   -2.683201
     25          9           0       -3.360602   -4.511538   -1.385894
     26          9           0       -4.692849   -3.356315   -2.667671
     27          6           0       -3.972311   -5.501487   -3.465161
     28          9           0       -4.273055   -5.223648   -4.762247
     29          9           0       -2.837509   -6.264376   -3.527790
     30          8           0       -4.960370   -6.366990   -2.964870
     31          6           0       -6.161911   -5.685859   -2.746049
     32          9           0       -7.160546   -6.589889   -2.688774
     33          9           0       -6.432801   -4.816030   -3.734336
     34          9           0       -6.108048   -5.043905   -1.566356
     35          7           0        1.064969   -1.101836    0.240215
     36          6           0        1.320070   -2.492818    0.547528
     37          6           0        0.498795   -2.955518    1.752039
     38          6           0        0.826673   -4.400369    2.132525
     39          6           0       -0.015926   -4.874013    3.313255
     40          9           0        0.172316   -4.027325    4.363341
     41          9           0       -1.333213   -4.779876    2.974391
     42          6           0        0.318372   -6.318631    3.726954
     43          9           0        1.630511   -6.408729    4.065902
     44          9           0        0.122153   -7.155968    2.675707
     45          8           0       -0.448054   -6.740832    4.828263
     46          6           0       -0.378422   -8.131445    4.939052
     47          9           0        0.877576   -8.590770    4.796425
     48          9           0       -0.816257   -8.480810    6.166668
     49          9           0       -1.183186   -8.712021    4.026971
     50          6           0        1.742280   -0.050828    0.845831
     51          8           0        2.641659   -0.160764    1.662553
     52          7           0        1.263921    1.146821    0.324609
     53          6           0        1.959426    2.406384    0.501439
     54          6           0        3.093509    2.582005   -0.511500
     55          6           0        3.891401    3.854149   -0.226799
     56          6           0        5.149279    4.028230   -1.079896
     57          9           0        5.961759    2.950708   -0.898068
     58          9           0        5.825825    5.093394   -0.560870
     59          6           0        4.890851    4.250716   -2.593198
     60          9           0        4.175269    3.192375   -3.077600
     61          9           0        4.088168    5.330238   -2.794270
     62          8           0        5.989083    4.357453   -3.465737
     63          6           0        6.878361    5.352941   -3.055041
     64          9           0        6.236757    6.444834   -2.605781
     65          9           0        7.634767    5.711058   -4.112622
     66          9           0        7.693939    4.867287   -2.102665
     67          1           0       -2.525210    2.745875   -0.402850
     68          1           0       -0.851429    3.304120   -0.483051
     69          1           0       -0.597152    2.643811    1.979273
     70          1           0       -2.248588    2.074436    1.975445
     71          1           0       -2.158862    4.205391    3.052945
     72          1           0       -3.090340    4.371657    1.560064
     73          1           0        0.516456    1.398173   -1.629545
     74          1           0        0.592265   -0.969872   -1.792076
     75          1           0       -2.688422   -2.383357   -0.563750
     76          1           0       -1.081189   -3.020714   -0.953400
     77          1           0       -1.286093   -1.668709   -3.179714
     78          1           0       -2.973626   -1.434558   -2.775823
     79          1           0       -1.541866   -4.106324   -3.211814
     80          1           0       -2.622078   -3.290629   -4.348188
     81          1           0        2.388079   -2.597115    0.777898
     82          1           0        1.113594   -3.100740   -0.340154
     83          1           0        0.696219   -2.297797    2.608276
     84          1           0       -0.570447   -2.863427    1.529512
     85          1           0        0.644850   -5.048481    1.267694
     86          1           0        1.891490   -4.471648    2.385526
     87          1           0        2.368732    2.422793    1.518707
     88          1           0        1.243459    3.227748    0.417112
     89          1           0        2.661620    2.617532   -1.516466
     90          1           0        3.759425    1.711034   -0.480388
     91          1           0        4.207385    3.838872    0.823719
     92          1           0        3.248623    4.735488   -0.336668
 ---------------------------------------------------------------------

 SCF Done:  E(UCAM-B3LYP) =  -4547.01357501     A.U. after   39 cycles

 Alpha  occ. eigenvalues --  -24.85010 -24.84756 -24.84600 -24.84531 -24.84353
 Alpha  occ. eigenvalues --  -24.84282 -24.84230 -24.84194 -24.84119 -24.84109
 Alpha  occ. eigenvalues --  -24.83952 -24.83935 -24.83893 -24.83849 -24.83808
 Alpha  occ. eigenvalues --  -24.83657 -24.83636 -24.83631 -24.83573 -24.83500
 Alpha  occ. eigenvalues --  -24.83498 -24.83441 -24.83282 -24.83087 -24.82318
 Alpha  occ. eigenvalues --  -24.82069 -24.82043 -24.81958 -19.33980 -19.33785
 Alpha  occ. eigenvalues --  -19.33693 -19.33270 -19.26781 -19.25409 -14.57029
 Alpha  occ. eigenvalues --  -14.56828 -14.52712 -14.52099 -10.60692 -10.60435
 Alpha  occ. eigenvalues --  -10.60254 -10.59930 -10.54547 -10.54334 -10.54296
 Alpha  occ. eigenvalues --  -10.53795 -10.49284 -10.48942 -10.48384 -10.47905
 Alpha  occ. eigenvalues --  -10.47847 -10.45939 -10.43459 -10.43293 -10.36792
 Alpha  occ. eigenvalues --  -10.36752 -10.35347 -10.35313 -10.32491 -10.32285
 Alpha  occ. eigenvalues --  -10.32101 -10.31999 -10.31332 -10.30998 -10.30772
 Alpha  occ. eigenvalues --  -10.30631  -1.44345  -1.44041  -1.43825  -1.43576
 Alpha  occ. eigenvalues --   -1.40324  -1.40163  -1.40089  -1.39998  -1.38795
 Alpha  occ. eigenvalues --   -1.38392  -1.37453  -1.37157  -1.34912  -1.34637
 Alpha  occ. eigenvalues --   -1.34426  -1.34139  -1.34042  -1.33857  -1.33608
 Alpha  occ. eigenvalues --   -1.33311  -1.33155  -1.32840  -1.32837  -1.32824
 Alpha  occ. eigenvalues --   -1.32346  -1.32051  -1.31115  -1.30990  -1.24173
 Alpha  occ. eigenvalues --   -1.22168  -1.21938  -1.21854  -1.21525  -1.20657
 Alpha  occ. eigenvalues --   -1.15682  -1.12680  -1.10919  -1.07110  -0.96669
 Alpha  occ. eigenvalues --   -0.94886  -0.94730  -0.93766  -0.92406  -0.90827
 Alpha  occ. eigenvalues --   -0.90099  -0.89279  -0.88924  -0.87096  -0.86347
 Alpha  occ. eigenvalues --   -0.85966  -0.84595  -0.83236  -0.82472  -0.81401
 Alpha  occ. eigenvalues --   -0.80293  -0.79117  -0.77822  -0.77135  -0.76983
 Alpha  occ. eigenvalues --   -0.76012  -0.75070  -0.74612  -0.74267  -0.73225
 Alpha  occ. eigenvalues --   -0.73211  -0.72917  -0.72580  -0.72268  -0.71862
 Alpha  occ. eigenvalues --   -0.71846  -0.71694  -0.71567  -0.71397  -0.71365
 Alpha  occ. eigenvalues --   -0.71299  -0.71186  -0.70778  -0.70717  -0.69641
 Alpha  occ. eigenvalues --   -0.69398  -0.69056  -0.68470  -0.68452  -0.68178
 Alpha  occ. eigenvalues --   -0.68092  -0.67731  -0.67528  -0.67362  -0.66199
 Alpha  occ. eigenvalues --   -0.65810  -0.65604  -0.64897  -0.64707  -0.64154
 Alpha  occ. eigenvalues --   -0.63772  -0.63398  -0.62443  -0.62119  -0.61827
 Alpha  occ. eigenvalues --   -0.61692  -0.61546  -0.61413  -0.61255  -0.60303
 Alpha  occ. eigenvalues --   -0.59694  -0.59135  -0.58970  -0.58744  -0.58346
 Alpha  occ. eigenvalues --   -0.58179  -0.58075  -0.57928  -0.57714  -0.57346
 Alpha  occ. eigenvalues --   -0.57285  -0.57136  -0.57022  -0.56865  -0.56681
 Alpha  occ. eigenvalues --   -0.56466  -0.56257  -0.55977  -0.55908  -0.55673
 Alpha  occ. eigenvalues --   -0.55575  -0.55343  -0.55188  -0.55063  -0.54957
 Alpha  occ. eigenvalues --   -0.54871  -0.54711  -0.54631  -0.54499  -0.54185
 Alpha  occ. eigenvalues --   -0.54156  -0.53960  -0.53824  -0.53653  -0.53260
 Alpha  occ. eigenvalues --   -0.53190  -0.53087  -0.52850  -0.52734  -0.52676
 Alpha  occ. eigenvalues --   -0.52572  -0.52558  -0.52303  -0.52191  -0.51939
 Alpha  occ. eigenvalues --   -0.51842  -0.51761  -0.51536  -0.51501  -0.51492
 Alpha  occ. eigenvalues --   -0.51278  -0.51187  -0.51057  -0.50800  -0.50680
 Alpha  occ. eigenvalues --   -0.50588  -0.50573  -0.50492  -0.50417  -0.50327
 Alpha  occ. eigenvalues --   -0.50239  -0.50107  -0.50057  -0.49792  -0.49668
 Alpha  occ. eigenvalues --   -0.49515  -0.49326  -0.49004  -0.48879  -0.48662
 Alpha  occ. eigenvalues --   -0.48256  -0.47213  -0.46958  -0.46865  -0.46705
 Alpha  occ. eigenvalues --   -0.46530  -0.46013  -0.45934  -0.45831  -0.44480
 Alpha  occ. eigenvalues --   -0.44373  -0.43835  -0.43626  -0.43451  -0.43390
 Alpha  occ. eigenvalues --   -0.42070  -0.41530  -0.41202  -0.39440  -0.38952
 Alpha  occ. eigenvalues --   -0.37369
 Alpha virt. eigenvalues --    0.01607   0.03457   0.06344   0.07411   0.08021
 Alpha virt. eigenvalues --    0.08490   0.08766   0.08945   0.09278   0.09817
 Alpha virt. eigenvalues --    0.10251   0.10494   0.10649   0.11185   0.11706

  Beta  occ. eigenvalues --  -24.85010 -24.84756 -24.84600 -24.84531 -24.84353
  Beta  occ. eigenvalues --  -24.84282 -24.84230 -24.84194 -24.84118 -24.84109
  Beta  occ. eigenvalues --  -24.83952 -24.83935 -24.83892 -24.83849 -24.83807
  Beta  occ. eigenvalues --  -24.83657 -24.83636 -24.83631 -24.83573 -24.83500
  Beta  occ. eigenvalues --  -24.83498 -24.83440 -24.83282 -24.83086 -24.82318
  Beta  occ. eigenvalues --  -24.82069 -24.82043 -24.81956 -19.33980 -19.33785
  Beta  occ. eigenvalues --  -19.33693 -19.33270 -19.26906 -19.25391 -14.56144
  Beta  occ. eigenvalues --  -14.55994 -14.52345 -14.51786 -10.60692 -10.60435
  Beta  occ. eigenvalues --  -10.60254 -10.59929 -10.54547 -10.54334 -10.54296
  Beta  occ. eigenvalues --  -10.53795 -10.49284 -10.48943 -10.48382 -10.47999
  Beta  occ. eigenvalues --  -10.47846 -10.45973 -10.43492 -10.43324 -10.36811
  Beta  occ. eigenvalues --  -10.36768 -10.35354 -10.35322 -10.32412 -10.32214
  Beta  occ. eigenvalues --  -10.32092 -10.31994 -10.31328 -10.30998 -10.30741
  Beta  occ. eigenvalues --  -10.30614  -1.44345  -1.44041  -1.43825  -1.43576
  Beta  occ. eigenvalues --   -1.40324  -1.40163  -1.40089  -1.39998  -1.38794
  Beta  occ. eigenvalues --   -1.38391  -1.37451  -1.37157  -1.34912  -1.34637
  Beta  occ. eigenvalues --   -1.34426  -1.34139  -1.34042  -1.33857  -1.33608
  Beta  occ. eigenvalues --   -1.33311  -1.33154  -1.32840  -1.32837  -1.32824
  Beta  occ. eigenvalues --   -1.32345  -1.32050  -1.31114  -1.30990  -1.23471
  Beta  occ. eigenvalues --   -1.22168  -1.21937  -1.21854  -1.21525  -1.20443
  Beta  occ. eigenvalues --   -1.15462  -1.11292  -1.10313  -1.06138  -0.96489
  Beta  occ. eigenvalues --   -0.94809  -0.94579  -0.93701  -0.92304  -0.90758
  Beta  occ. eigenvalues --   -0.89968  -0.89150  -0.88822  -0.87022  -0.86311
  Beta  occ. eigenvalues --   -0.85877  -0.84467  -0.83149  -0.82348  -0.81343
  Beta  occ. eigenvalues --   -0.80048  -0.78953  -0.77728  -0.77092  -0.76903
  Beta  occ. eigenvalues --   -0.75978  -0.74891  -0.74512  -0.74028  -0.73215
  Beta  occ. eigenvalues --   -0.73148  -0.72906  -0.72350  -0.72231  -0.71814
  Beta  occ. eigenvalues --   -0.71701  -0.71651  -0.71492  -0.71374  -0.71326
  Beta  occ. eigenvalues --   -0.71292  -0.70996  -0.70723  -0.70443  -0.69447
  Beta  occ. eigenvalues --   -0.69312  -0.68947  -0.68456  -0.68431  -0.68084
  Beta  occ. eigenvalues --   -0.67912  -0.67717  -0.67526  -0.67166  -0.65858
  Beta  occ. eigenvalues --   -0.65733  -0.65587  -0.64892  -0.64660  -0.63960
  Beta  occ. eigenvalues --   -0.63678  -0.63291  -0.62156  -0.61930  -0.61680
  Beta  occ. eigenvalues --   -0.61612  -0.61421  -0.61276  -0.60776  -0.60102
  Beta  occ. eigenvalues --   -0.59051  -0.58862  -0.58675  -0.58582  -0.58158
  Beta  occ. eigenvalues --   -0.58142  -0.57942  -0.57924  -0.57634  -0.57320
  Beta  occ. eigenvalues --   -0.57153  -0.57109  -0.57015  -0.56840  -0.56646
  Beta  occ. eigenvalues --   -0.56382  -0.56225  -0.55949  -0.55812  -0.55551
  Beta  occ. eigenvalues --   -0.55502  -0.55262  -0.55107  -0.54951  -0.54927
  Beta  occ. eigenvalues --   -0.54818  -0.54611  -0.54536  -0.54405  -0.54145
  Beta  occ. eigenvalues --   -0.54097  -0.53951  -0.53800  -0.53509  -0.53204
  Beta  occ. eigenvalues --   -0.53041  -0.53012  -0.52767  -0.52696  -0.52626
  Beta  occ. eigenvalues --   -0.52557  -0.52503  -0.52233  -0.52165  -0.51907
  Beta  occ. eigenvalues --   -0.51821  -0.51696  -0.51534  -0.51494  -0.51460
  Beta  occ. eigenvalues --   -0.51211  -0.51109  -0.51017  -0.50790  -0.50665
  Beta  occ. eigenvalues --   -0.50575  -0.50539  -0.50454  -0.50382  -0.50314
  Beta  occ. eigenvalues --   -0.50204  -0.50068  -0.50028  -0.49674  -0.49621
  Beta  occ. eigenvalues --   -0.49406  -0.49137  -0.48969  -0.48806  -0.48381
  Beta  occ. eigenvalues --   -0.48081  -0.47034  -0.46852  -0.46808  -0.46673
  Beta  occ. eigenvalues --   -0.46473  -0.45958  -0.45869  -0.45776  -0.44435
  Beta  occ. eigenvalues --   -0.44308  -0.43741  -0.43583  -0.43372  -0.43335
  Beta  occ. eigenvalues --   -0.41391  -0.39611  -0.38919  -0.37213  -0.35471
  Beta virt. eigenvalues --   -0.22666   0.01970   0.03798   0.06571   0.07483
  Beta virt. eigenvalues --    0.08061   0.08512   0.08807   0.09011   0.09350
  Beta virt. eigenvalues --    0.10041   0.10339   0.10527   0.10732   0.11261

 Mulliken charges and spin densities:
               1          2
     1  O   -0.495826  -0.043589
     2  C    0.820791  -0.058611
     3  N   -0.404994   0.400906
     4  C   -0.093756  -0.018659
     5  C   -0.219241   0.031248
     6  C   -0.261486   0.003348
     7  C    0.546052  -0.000213
     8  F   -0.280081   0.000104
     9  F   -0.281879   0.000100
    10  C    0.750517  -0.000045
    11  F   -0.257148   0.000007
    12  F   -0.266964   0.000065
    13  O   -0.490449   0.000009
    14  C    0.979831  -0.000002
    15  F   -0.243138   0.000001
    16  F   -0.248997   0.000004
    17  F   -0.241110   0.000000
    18  C    0.177565  -0.029430
    19  C    0.177846  -0.027172
    20  N   -0.418110   0.374820
    21  C   -0.086562  -0.017094
    22  C   -0.226478   0.034287
    23  C   -0.261742   0.005397
    24  C    0.551270  -0.000167
    25  F   -0.278292   0.000157
    26  F   -0.278748   0.000029
    27  C    0.747108  -0.000049
    28  F   -0.257320   0.000057
    29  F   -0.272866   0.000014
    30  O   -0.491694   0.000027
    31  C    0.979795   0.000000
    32  F   -0.242454   0.000001
    33  F   -0.243115   0.000000
    34  F   -0.243539   0.000002
    35  N   -0.472371   0.136670
    36  C   -0.082388  -0.006144
    37  C   -0.204283   0.008535
    38  C   -0.256632  -0.000292
    39  C    0.540122   0.000208
    40  F   -0.282440  -0.000001
    41  F   -0.284465   0.000007
    42  C    0.776597   0.000053
    43  F   -0.264212   0.000000
    44  F   -0.268299  -0.000001
    45  O   -0.516112   0.000011
    46  C    0.988682   0.000004
    47  F   -0.245651   0.000000
    48  F   -0.246271   0.000002
    49  F   -0.248014   0.000000
    50  C    0.827011  -0.023898
    51  O   -0.512457   0.008289
    52  N   -0.479282   0.159208
    53  C   -0.078845  -0.008187
    54  C   -0.216394   0.012821
    55  C   -0.265034   0.002147
    56  C    0.548678   0.000679
    57  F   -0.276983   0.000006
    58  F   -0.284533   0.000343
    59  C    0.739519  -0.000036
    60  F   -0.266601   0.000047
    61  F   -0.258188  -0.000002
    62  O   -0.492860   0.000013
    63  C    0.980992  -0.000002
    64  F   -0.243346   0.000001
    65  F   -0.244254   0.000001
    66  F   -0.242641   0.000002
    67  H    0.193217   0.018719
    68  H    0.164712   0.003249
    69  H    0.146696  -0.000592
    70  H    0.161088  -0.001073
    71  H    0.169831   0.001523
    72  H    0.164855   0.000043
    73  H    0.204576   0.005821
    74  H    0.197111  -0.000400
    75  H    0.193327   0.005576
    76  H    0.160824   0.007904
    77  H    0.141783  -0.001270
    78  H    0.164124  -0.000900
    79  H    0.155782  -0.000118
    80  H    0.167645   0.002020
    81  H    0.174126   0.009015
    82  H    0.145175   0.000187
    83  H    0.149000  -0.000256
    84  H    0.126237  -0.000336
    85  H    0.146628   0.000000
    86  H    0.156352   0.000160
    87  H    0.173824   0.000823
    88  H    0.137608   0.004834
    89  H    0.130156  -0.000351
    90  H    0.146044  -0.000474
    91  H    0.163809  -0.000063
    92  H    0.151634  -0.000076
 Sum of Mulliken charges =   1.00000   1.00000

 Dipole moment (field-independent basis, Debye):
    X=             -1.0526    Y=              1.6228    Z=             -5.4007  Tot=              5.7367
 Quadrupole moment (field-independent basis, Debye-Ang):
   XX=           -374.7379   YY=           -350.8132   ZZ=           -354.1225
   XY=            -19.2341   XZ=              3.1579   YZ=             20.2045

 Normal termination of Gaussian 09 at Thu Jan 30 13:20:24 2025.
