 Gaussian 09, Revision D.01,
 Gaussian 09:  ES64L-G09RevD.01 24-Apr-2013

 ----------------------------------------------------------------------
 #p CAM-B3LYP/6-31G(d,p) SCRF=(PCM,Solvent=Generic,Read) NoSymm out=wfn
 ----------------------------------------------------------------------

 --------------------
 Title A1635117080_p1
 --------------------
 Symbolic Z-matrix:
 Charge =  1 Multiplicity = 2

                          Input orientation:
 ---------------------------------------------------------------------
 Center     Atomic      Atomic             Coordinates (Angstroms)
 Number     Number       Type             X           Y           Z
 ---------------------------------------------------------------------
      1          6           0       -1.961096    5.754281   -0.718357
      2          6           0       -2.770648    4.669550   -0.024913
      3          6           0       -1.936877    3.454062    0.382924
      4          6           0       -1.373947    2.676263   -0.810604
      5          7           0       -0.672616    1.469783   -0.366481
      6          6           0        0.691729    1.570019   -0.119483
      7          8           0        1.293090    2.636754   -0.223350
      8          7           0        1.324857    0.389857    0.222445
      9          6           0        2.731265    0.517547    0.616655
     10          9           0        3.382809    1.244028   -0.332316
     11          9           0        2.766251    1.237451    1.768414
     12          6           0        3.526243   -0.797518    0.809269
     13          9           0        2.984207   -1.472329    1.872189
     14          8           0        3.317328   -1.628635   -0.342486
     15          6           0        4.159512   -2.752195   -0.362710
     16          9           0        4.202142   -3.339395    0.842795
     17          9           0        3.674265   -3.630859   -1.257735
     18          9           0        5.390104   -2.378518   -0.744084
     19          6           0        4.968806   -0.382114    1.135608
     20          9           0        5.717203   -1.457626    1.485470
     21          9           0        5.042527    0.477953    2.174192
     22          9           0        5.586429    0.192036    0.080823
     23          6           0        0.524451   -0.593935    0.882258
     24          7           0       -0.739890   -0.772973    0.247507
     25          6           0       -1.444085   -2.022951    0.471615
     26          9           0       -2.703486   -1.797558    0.916547
     27          9           0       -0.819634   -2.621249    1.540338
     28          6           0       -1.421033   -3.054182   -0.681221
     29          9           0       -0.099378   -3.135625   -1.094905
     30          8           0       -1.691012   -4.413712   -0.297760
     31          6           0       -2.900159   -4.602302    0.391509
     32          9           0       -3.161920   -5.921131    0.438272
     33          9           0       -3.908290   -3.985842   -0.233695
     34          9           0       -2.787865   -4.142623    1.646483
     35          6           0       -2.232306   -2.570550   -1.884107
     36          9           0       -2.318037   -3.556547   -2.816774
     37          9           0       -1.630714   -1.524861   -2.500198
     38          9           0       -3.492377   -2.205707   -1.589466
     39          6           0       -1.397698    0.296419   -0.282782
     40          8           0       -2.559508    0.195801   -0.667031
     41          1           0       -1.583319    5.415700   -1.687449
     42          1           0       -2.587773    6.634036   -0.896808
     43          1           0       -1.110231    6.063720   -0.103268
     44          1           0       -3.594568    4.355849   -0.676325
     45          1           0       -3.224984    5.097213    0.876818
     46          1           0       -2.570284    2.786646    0.981015
     47          1           0       -1.118492    3.770805    1.041288
     48          1           0       -2.188615    2.400739   -1.490202
     49          1           0       -0.683840    3.303754   -1.384646
     50          1           0        0.361881   -0.294875    1.924124
     51          1           0        1.039585   -1.554455    0.840596
 ---------------------------------------------------------------------

 SCF Done:  E(UCAM-B3LYP) =  -2839.37768141     A.U. after   38 cycles

 Alpha  occ. eigenvalues --  -24.87026 -24.87005 -24.86954 -24.86765 -24.86684
 Alpha  occ. eigenvalues --  -24.86228 -24.86207 -24.86146 -24.86067 -24.85879
 Alpha  occ. eigenvalues --  -24.85786 -24.85742 -24.85550 -24.85520 -24.85436
 Alpha  occ. eigenvalues --  -24.85269 -24.85130 -24.84742 -19.36498 -19.35664
 Alpha  occ. eigenvalues --  -19.32647 -19.31861 -14.65747 -14.57156 -14.57091
 Alpha  occ. eigenvalues --  -10.62127 -10.61725 -10.58290 -10.57777 -10.57212
 Alpha  occ. eigenvalues --  -10.56998 -10.52774 -10.52732 -10.52499 -10.52076
 Alpha  occ. eigenvalues --  -10.43290 -10.39986 -10.33742 -10.30476 -10.27892
 Alpha  occ. eigenvalues --   -1.45713  -1.45579  -1.44335  -1.44104  -1.43072
 Alpha  occ. eigenvalues --   -1.42660  -1.39498  -1.38170  -1.36271  -1.36241
 Alpha  occ. eigenvalues --   -1.35962  -1.35890  -1.35595  -1.35219  -1.35001
 Alpha  occ. eigenvalues --   -1.34912  -1.34523  -1.34227  -1.29878  -1.25087
 Alpha  occ. eigenvalues --   -1.23901  -1.22977  -1.18551  -1.17052  -1.12448
 Alpha  occ. eigenvalues --   -0.97841  -0.96615  -0.96280  -0.91260  -0.90165
 Alpha  occ. eigenvalues --   -0.90092  -0.85963  -0.85050  -0.84380  -0.83783
 Alpha  occ. eigenvalues --   -0.80873  -0.79236  -0.78658  -0.77613  -0.76438
 Alpha  occ. eigenvalues --   -0.75779  -0.75226  -0.74365  -0.73985  -0.73427
 Alpha  occ. eigenvalues --   -0.72938  -0.72327  -0.72093  -0.71904  -0.71418
 Alpha  occ. eigenvalues --   -0.71202  -0.70864  -0.70392  -0.69878  -0.69636
 Alpha  occ. eigenvalues --   -0.69029  -0.68581  -0.68128  -0.67593  -0.66689
 Alpha  occ. eigenvalues --   -0.65727  -0.63277  -0.62984  -0.62075  -0.61432
 Alpha  occ. eigenvalues --   -0.61186  -0.60651  -0.60197  -0.59948  -0.59853
 Alpha  occ. eigenvalues --   -0.59389  -0.59297  -0.59134  -0.58937  -0.58258
 Alpha  occ. eigenvalues --   -0.58141  -0.57969  -0.57752  -0.57609  -0.57492
 Alpha  occ. eigenvalues --   -0.57133  -0.56713  -0.56364  -0.56184  -0.55803
 Alpha  occ. eigenvalues --   -0.55361  -0.55268  -0.55212  -0.54920  -0.54477
 Alpha  occ. eigenvalues --   -0.54386  -0.54269  -0.53705  -0.53492  -0.53337
 Alpha  occ. eigenvalues --   -0.53256  -0.53057  -0.52803  -0.52734  -0.52460
 Alpha  occ. eigenvalues --   -0.52166  -0.52014  -0.51710  -0.51397  -0.50869
 Alpha  occ. eigenvalues --   -0.50748  -0.49738  -0.49321  -0.48192  -0.48103
 Alpha  occ. eigenvalues --   -0.46683  -0.46428  -0.45581  -0.44606  -0.44325
 Alpha  occ. eigenvalues --   -0.44058  -0.43654  -0.42425
 Alpha virt. eigenvalues --   -0.06532  -0.00789   0.02622   0.02859   0.03345
 Alpha virt. eigenvalues --    0.04159   0.07969   0.09222   0.10584   0.10961
 Alpha virt. eigenvalues --    0.12389   0.12682   0.13556   0.13805   0.13838

  Beta  occ. eigenvalues --  -24.87025 -24.86998 -24.86952 -24.86752 -24.86669
  Beta  occ. eigenvalues --  -24.86228 -24.86201 -24.86146 -24.86067 -24.85879
  Beta  occ. eigenvalues --  -24.85786 -24.85742 -24.85550 -24.85520 -24.85436
  Beta  occ. eigenvalues --  -24.85269 -24.85130 -24.84742 -19.36498 -19.35662
  Beta  occ. eigenvalues --  -19.32277 -19.31516 -14.64475 -14.57080 -14.56966
  Beta  occ. eigenvalues --  -10.62127 -10.61725 -10.58290 -10.57777 -10.57218
  Beta  occ. eigenvalues --  -10.57006 -10.52937 -10.52731 -10.52651 -10.52073
  Beta  occ. eigenvalues --  -10.43298 -10.39924 -10.33552 -10.30439 -10.27886
  Beta  occ. eigenvalues --   -1.45712  -1.45577  -1.44331  -1.44100  -1.43060
  Beta  occ. eigenvalues --   -1.42635  -1.39494  -1.38168  -1.36269  -1.36215
  Beta  occ. eigenvalues --   -1.35962  -1.35879  -1.35594  -1.35214  -1.34998
  Beta  occ. eigenvalues --   -1.34907  -1.34522  -1.34224  -1.28799  -1.24518
  Beta  occ. eigenvalues --   -1.23899  -1.22971  -1.17958  -1.15207  -1.12139
  Beta  occ. eigenvalues --   -0.97598  -0.96495  -0.95964  -0.91094  -0.90007
  Beta  occ. eigenvalues --   -0.89794  -0.85733  -0.84826  -0.84349  -0.83633
  Beta  occ. eigenvalues --   -0.80643  -0.78996  -0.78551  -0.77544  -0.76352
  Beta  occ. eigenvalues --   -0.75745  -0.75108  -0.74306  -0.73902  -0.73404
  Beta  occ. eigenvalues --   -0.72832  -0.72204  -0.71985  -0.71462  -0.71232
  Beta  occ. eigenvalues --   -0.70962  -0.70678  -0.70318  -0.69758  -0.69326
  Beta  occ. eigenvalues --   -0.68995  -0.68399  -0.67778  -0.66887  -0.66542
  Beta  occ. eigenvalues --   -0.64998  -0.63159  -0.61781  -0.61752  -0.61151
  Beta  occ. eigenvalues --   -0.60732  -0.60450  -0.60084  -0.59819  -0.59751
  Beta  occ. eigenvalues --   -0.59317  -0.59199  -0.59030  -0.58604  -0.58224
  Beta  occ. eigenvalues --   -0.58058  -0.57844  -0.57725  -0.57523  -0.57409
  Beta  occ. eigenvalues --   -0.57027  -0.56646  -0.56191  -0.55919  -0.55422
  Beta  occ. eigenvalues --   -0.55272  -0.55241  -0.55122  -0.54786  -0.54446
  Beta  occ. eigenvalues --   -0.54362  -0.54242  -0.53432  -0.53358  -0.53215
  Beta  occ. eigenvalues --   -0.53171  -0.53022  -0.52734  -0.52466  -0.52195
  Beta  occ. eigenvalues --   -0.51980  -0.51707  -0.51541  -0.51352  -0.50858
  Beta  occ. eigenvalues --   -0.50730  -0.49285  -0.49171  -0.47908  -0.46517
  Beta  occ. eigenvalues --   -0.45813  -0.44576  -0.44485  -0.43904  -0.43743
  Beta  occ. eigenvalues --   -0.43302  -0.41192
  Beta virt. eigenvalues --   -0.27776  -0.05846   0.00704   0.02830   0.03056
  Beta virt. eigenvalues --    0.03419   0.04254   0.08234   0.09288   0.10736
  Beta virt. eigenvalues --    0.11141   0.12614   0.12818   0.13733   0.13881

 Mulliken charges and spin densities:
               1          2
     1  C   -0.334093   0.002758
     2  C   -0.199693   0.020567
     3  C   -0.208107   0.095611
     4  C   -0.103956   0.025073
     5  N   -0.462589   0.579406
     6  C    0.875248  -0.095933
     7  O   -0.408793   0.148951
     8  N   -0.580042   0.060120
     9  C    0.792470  -0.004027
    10  F   -0.251431   0.003336
    11  F   -0.247681   0.003224
    12  C    0.385338   0.000193
    13  F   -0.261285   0.000266
    14  O   -0.509963   0.000005
    15  C    1.001919  -0.000024
    16  F   -0.238897   0.000006
    17  F   -0.232962  -0.000001
    18  F   -0.235972  -0.000001
    19  C    0.831542  -0.000006
    20  F   -0.251912   0.000003
    21  F   -0.238461   0.000020
    22  F   -0.237699   0.000061
    23  C    0.100857  -0.002219
    24  N   -0.593107   0.038789
    25  C    0.746188  -0.002543
    26  F   -0.234276   0.001389
    27  F   -0.268912   0.000653
    28  C    0.448374   0.001231
    29  F   -0.276772   0.000111
    30  O   -0.493762   0.000968
    31  C    0.984787  -0.000043
    32  F   -0.233779   0.000019
    33  F   -0.233704  -0.000003
    34  F   -0.238645   0.000056
    35  C    0.813871  -0.000062
    36  F   -0.248001   0.000153
    37  F   -0.249506   0.001340
    38  F   -0.229976  -0.000008
    39  C    0.884794  -0.088497
    40  O   -0.429666   0.139690
    41  H    0.119099   0.003307
    42  H    0.136066   0.003139
    43  H    0.127205  -0.000256
    44  H    0.136445   0.000084
    45  H    0.154299   0.019588
    46  H    0.159233  -0.002357
    47  H    0.161879  -0.002287
    48  H    0.226349   0.014526
    49  H    0.223291   0.018755
    50  H    0.217879   0.012312
    51  H    0.206510   0.002557
 Sum of Mulliken charges =   1.00000   1.00000

 Dipole moment (field-independent basis, Debye):
    X=             -3.0290    Y=              6.4624    Z=              1.1692  Tot=              7.2322
 Quadrupole moment (field-independent basis, Debye-Ang):
   XX=           -202.0005   YY=           -179.1318   ZZ=           -207.0304
   XY=            -21.2100   XZ=              0.9168   YZ=             -4.3667

 Normal termination of Gaussian 09 at Sun Mar  3 17:36:07 2024.
