 Gaussian 09, Revision D.01,
 Gaussian 09:  ES64L-G09RevD.01 24-Apr-2013

 ----------------------------------------------------------------------
 #p CAM-B3LYP/6-31G(d,p) SCRF=(PCM,Solvent=Generic,Read) NoSymm out=wfn
 ----------------------------------------------------------------------

 -------------------
 Title A1635117080_0
 -------------------
 Symbolic Z-matrix:
 Charge =  0 Multiplicity = 1

                          Input orientation:
 ---------------------------------------------------------------------
 Center     Atomic      Atomic             Coordinates (Angstroms)
 Number     Number       Type             X           Y           Z
 ---------------------------------------------------------------------
      1          6           0       -1.961096    5.754281   -0.718357
      2          6           0       -2.770648    4.669550   -0.024913
      3          6           0       -1.936877    3.454062    0.382924
      4          6           0       -1.373947    2.676263   -0.810604
      5          7           0       -0.672616    1.469783   -0.366481
      6          6           0        0.691729    1.570019   -0.119483
      7          8           0        1.293090    2.636754   -0.223350
      8          7           0        1.324857    0.389857    0.222445
      9          6           0        2.731265    0.517547    0.616655
     10          9           0        3.382809    1.244028   -0.332316
     11          9           0        2.766251    1.237451    1.768414
     12          6           0        3.526243   -0.797518    0.809269
     13          9           0        2.984207   -1.472329    1.872189
     14          8           0        3.317328   -1.628635   -0.342486
     15          6           0        4.159512   -2.752195   -0.362710
     16          9           0        4.202142   -3.339395    0.842795
     17          9           0        3.674265   -3.630859   -1.257735
     18          9           0        5.390104   -2.378518   -0.744084
     19          6           0        4.968806   -0.382114    1.135608
     20          9           0        5.717203   -1.457626    1.485470
     21          9           0        5.042527    0.477953    2.174192
     22          9           0        5.586429    0.192036    0.080823
     23          6           0        0.524451   -0.593935    0.882258
     24          7           0       -0.739890   -0.772973    0.247507
     25          6           0       -1.444085   -2.022951    0.471615
     26          9           0       -2.703486   -1.797558    0.916547
     27          9           0       -0.819634   -2.621249    1.540338
     28          6           0       -1.421033   -3.054182   -0.681221
     29          9           0       -0.099378   -3.135625   -1.094905
     30          8           0       -1.691012   -4.413712   -0.297760
     31          6           0       -2.900159   -4.602302    0.391509
     32          9           0       -3.161920   -5.921131    0.438272
     33          9           0       -3.908290   -3.985842   -0.233695
     34          9           0       -2.787865   -4.142623    1.646483
     35          6           0       -2.232306   -2.570550   -1.884107
     36          9           0       -2.318037   -3.556547   -2.816774
     37          9           0       -1.630714   -1.524861   -2.500198
     38          9           0       -3.492377   -2.205707   -1.589466
     39          6           0       -1.397698    0.296419   -0.282782
     40          8           0       -2.559508    0.195801   -0.667031
     41          1           0       -1.583319    5.415700   -1.687449
     42          1           0       -2.587773    6.634036   -0.896808
     43          1           0       -1.110231    6.063720   -0.103268
     44          1           0       -3.594568    4.355849   -0.676325
     45          1           0       -3.224984    5.097213    0.876818
     46          1           0       -2.570284    2.786646    0.981015
     47          1           0       -1.118492    3.770805    1.041288
     48          1           0       -2.188615    2.400739   -1.490202
     49          1           0       -0.683840    3.303754   -1.384646
     50          1           0        0.361881   -0.294875    1.924124
     51          1           0        1.039585   -1.554455    0.840596
 ---------------------------------------------------------------------

 SCF Done:  E(RCAM-B3LYP) =  -2839.68834291     A.U. after   13 cycles

 Alpha  occ. eigenvalues --  -24.84184 -24.84096 -24.84082 -24.83944 -24.83917
 Alpha  occ. eigenvalues --  -24.83745 -24.83500 -24.83433 -24.83414 -24.83174
 Alpha  occ. eigenvalues --  -24.83126 -24.82920 -24.82882 -24.82685 -24.82503
 Alpha  occ. eigenvalues --  -24.82385 -24.82270 -24.82262 -19.33849 -19.33033
 Alpha  occ. eigenvalues --  -19.22162 -19.21752 -14.49508 -14.49116 -14.48576
 Alpha  occ. eigenvalues --  -10.60069 -10.59627 -10.55975 -10.54833 -10.52589
 Alpha  occ. eigenvalues --  -10.52232 -10.49544 -10.48718 -10.43567 -10.43440
 Alpha  occ. eigenvalues --  -10.37344 -10.30335 -10.25816 -10.25409 -10.24367
 Alpha  occ. eigenvalues --   -1.43741  -1.43425  -1.42119  -1.41215  -1.39016
 Alpha  occ. eigenvalues --   -1.38555  -1.36521  -1.35078  -1.34105  -1.34095
 Alpha  occ. eigenvalues --   -1.33761  -1.33220  -1.33146  -1.32518  -1.32085
 Alpha  occ. eigenvalues --   -1.31870  -1.31576  -1.31576  -1.21273  -1.20394
 Alpha  occ. eigenvalues --   -1.19369  -1.15698  -1.10184  -1.05051  -1.04828
 Alpha  occ. eigenvalues --   -0.93760  -0.92695  -0.88865  -0.85282  -0.84348
 Alpha  occ. eigenvalues --   -0.83512  -0.81911  -0.81878  -0.79578  -0.77466
 Alpha  occ. eigenvalues --   -0.76589  -0.74851  -0.73959  -0.73398  -0.73120
 Alpha  occ. eigenvalues --   -0.71823  -0.71286  -0.70987  -0.70803  -0.70203
 Alpha  occ. eigenvalues --   -0.70006  -0.69858  -0.69052  -0.68780  -0.68374
 Alpha  occ. eigenvalues --   -0.67630  -0.67428  -0.66118  -0.65757  -0.65233
 Alpha  occ. eigenvalues --   -0.65017  -0.64103  -0.63340  -0.61601  -0.60466
 Alpha  occ. eigenvalues --   -0.59510  -0.58864  -0.57976  -0.57823  -0.57449
 Alpha  occ. eigenvalues --   -0.57321  -0.56606  -0.56584  -0.56435  -0.55982
 Alpha  occ. eigenvalues --   -0.55833  -0.55484  -0.55312  -0.55054  -0.54882
 Alpha  occ. eigenvalues --   -0.54410  -0.54294  -0.54063  -0.53619  -0.53458
 Alpha  occ. eigenvalues --   -0.53005  -0.52916  -0.52671  -0.52426  -0.52300
 Alpha  occ. eigenvalues --   -0.52206  -0.51936  -0.51398  -0.51235  -0.50964
 Alpha  occ. eigenvalues --   -0.50806  -0.50746  -0.50538  -0.50364  -0.50233
 Alpha  occ. eigenvalues --   -0.50166  -0.49742  -0.49530  -0.49393  -0.49128
 Alpha  occ. eigenvalues --   -0.48918  -0.48497  -0.48175  -0.47878  -0.47264
 Alpha  occ. eigenvalues --   -0.46326  -0.45919  -0.44653  -0.43654  -0.43134
 Alpha  occ. eigenvalues --   -0.40288  -0.39449  -0.39189  -0.37697  -0.37382
 Alpha  occ. eigenvalues --   -0.35427  -0.35113  -0.34268
 Alpha virt. eigenvalues --    0.01997   0.05484   0.06708   0.07239   0.07798
 Alpha virt. eigenvalues --    0.09759   0.13470   0.13782   0.15682   0.16377
 Alpha virt. eigenvalues --    0.16824   0.17670   0.18119   0.18421   0.18944

 Mulliken charges:
               1
     1  C   -0.323079
     2  C   -0.187041
     3  C   -0.179458
     4  C   -0.059896
     5  N   -0.601786
     6  C    0.832281
     7  O   -0.520145
     8  N   -0.597918
     9  C    0.782616
    10  F   -0.264494
    11  F   -0.263386
    12  C    0.385924
    13  F   -0.267856
    14  O   -0.507632
    15  C    0.997084
    16  F   -0.242283
    17  F   -0.236489
    18  F   -0.240088
    19  C    0.824124
    20  F   -0.258552
    21  F   -0.241722
    22  F   -0.241449
    23  C    0.117440
    24  N   -0.604449
    25  C    0.742552
    26  F   -0.246037
    27  F   -0.284358
    28  C    0.440150
    29  F   -0.282993
    30  O   -0.504710
    31  C    0.980786
    32  F   -0.239564
    33  F   -0.235417
    34  F   -0.239786
    35  C    0.812414
    36  F   -0.257685
    37  F   -0.246926
    38  F   -0.233110
    39  C    0.846747
    40  O   -0.535298
    41  H    0.108295
    42  H    0.106465
    43  H    0.110761
    44  H    0.103418
    45  H    0.103255
    46  H    0.106430
    47  H    0.111029
    48  H    0.148230
    49  H    0.147577
    50  H    0.167198
    51  H    0.168835
 Sum of Mulliken charges =   0.00000

 Dipole moment (field-independent basis, Debye):
    X=              0.2083    Y=             -0.5573    Z=              1.8089  Tot=              1.9042
 Quadrupole moment (field-independent basis, Debye-Ang):
   XX=           -225.2657   YY=           -217.9151   ZZ=           -214.6003
   XY=            -11.9144   XZ=             -1.7173   YZ=             -2.0509

 Normal termination of Gaussian 09 at Sun Mar  3 17:33:06 2024.
