 Gaussian 09, Revision D.01,
 Gaussian 09:  ES64L-G09RevD.01 24-Apr-2013

 ----------------------------------------------------------------------
 #p CAM-B3LYP/6-31G(d,p) SCRF=(PCM,Solvent=Generic,Read) NoSymm out=wfn
 ----------------------------------------------------------------------

 ------------------
 Title A201888832_0
 ------------------
 Symbolic Z-matrix:
 Charge =  0 Multiplicity = 1

                          Input orientation:
 ---------------------------------------------------------------------
 Center     Atomic      Atomic             Coordinates (Angstroms)
 Number     Number       Type             X           Y           Z
 ---------------------------------------------------------------------
      1          6           0       -0.615303    3.076767   -3.767347
      2          6           0       -0.394267    3.024442   -2.587903
      3          6           0       -0.124993    2.955339   -1.142204
      4          7           0       -0.070040    1.564619   -0.704380
      5          6           0       -1.242421    0.948842   -0.333642
      6          8           0       -2.300564    1.567248   -0.277144
      7          7           0       -1.173498   -0.380044   -0.023902
      8          6           0       -2.349790   -1.088749    0.477228
      9          9           0       -2.142755   -2.426341    0.244175
     10          9           0       -2.354786   -0.972529    1.837346
     11          6           0       -3.797477   -0.814224   -0.045674
     12          9           0       -4.623820   -1.792838    0.465641
     13          8           0       -4.459688    0.407683    0.275150
     14          6           0       -4.516939    0.670722    1.653806
     15          9           0       -4.841877   -0.427219    2.355644
     16          9           0       -3.333274    1.143352    2.084570
     17          9           0       -5.455471    1.612362    1.871394
     18          6           0       -3.768666   -1.031946   -1.559280
     19          9           0       -3.363972   -2.280519   -1.890108
     20          9           0       -2.930994   -0.182673   -2.198032
     21          9           0       -4.994813   -0.861196   -2.111775
     22          6           0        0.044173   -0.950002    0.288129
     23          8           0        0.150308   -1.900002    1.058674
     24          7           0        1.152658   -0.371338   -0.284724
     25          6           0        2.434308   -1.042401   -0.109423
     26          9           0        3.272367   -0.702273   -1.125347
     27          9           0        2.218511   -2.380511   -0.333702
     28          6           0        3.144043   -0.898747    1.270815
     29          9           0        2.174666   -0.837351    2.250590
     30          8           0        3.899270   -2.058807    1.661268
     31          6           0        5.107663   -2.226786    0.966636
     32          9           0        5.602557   -3.444919    1.247847
     33          9           0        5.991522   -1.298916    1.362862
     34          9           0        4.913603   -2.132327   -0.354232
     35          6           0        3.897056    0.428767    1.347851
     36          9           0        4.779989    0.597142    0.345291
     37          9           0        4.592546    0.515519    2.510274
     38          9           0        3.046636    1.481029    1.344225
     39          6           0        1.149432    0.928278   -0.711017
     40          8           0        2.183204    1.505581   -1.039015
     41          1           0       -0.811013    3.125929   -4.814309
     42          1           0       -0.908357    3.488730   -0.592093
     43          1           0        0.820265    3.460304   -0.914164
 ---------------------------------------------------------------------

 SCF Done:  E(RCAM-B3LYP) =  -2871.89330859     A.U. after   13 cycles

 Alpha  occ. eigenvalues --  -24.84193 -24.83828 -24.83826 -24.83748 -24.83723
 Alpha  occ. eigenvalues --  -24.83489 -24.83468 -24.83356 -24.83192 -24.83184
 Alpha  occ. eigenvalues --  -24.83037 -24.83029 -24.82988 -24.82792 -24.82781
 Alpha  occ. eigenvalues --  -24.82744 -24.82699 -24.82388 -19.33318 -19.32414
 Alpha  occ. eigenvalues --  -19.25349 -19.24641 -19.24391 -14.53778 -14.53672
 Alpha  occ. eigenvalues --  -14.51759 -10.59837 -10.59219 -10.55607 -10.55530
 Alpha  occ. eigenvalues --  -10.54044 -10.53686 -10.49579 -10.49378 -10.47465
 Alpha  occ. eigenvalues --  -10.46539 -10.46378 -10.35070 -10.27921 -10.27170
 Alpha  occ. eigenvalues --   -1.43664  -1.42677  -1.42022  -1.41995  -1.39174
 Alpha  occ. eigenvalues --   -1.39087  -1.35592  -1.35155  -1.34156  -1.33645
 Alpha  occ. eigenvalues --   -1.33056  -1.32990  -1.32889  -1.32728  -1.32461
 Alpha  occ. eigenvalues --   -1.32334  -1.31726  -1.31543  -1.24143  -1.20679
 Alpha  occ. eigenvalues --   -1.20211  -1.18865  -1.18619  -1.10772  -1.09079
 Alpha  occ. eigenvalues --   -1.07981  -0.94097  -0.93190  -0.89489  -0.85843
 Alpha  occ. eigenvalues --   -0.84739  -0.82598  -0.82360  -0.80925  -0.80485
 Alpha  occ. eigenvalues --   -0.78961  -0.76875  -0.75702  -0.75466  -0.74024
 Alpha  occ. eigenvalues --   -0.73170  -0.72066  -0.71722  -0.71204  -0.70407
 Alpha  occ. eigenvalues --   -0.70170  -0.69934  -0.69225  -0.68940  -0.68330
 Alpha  occ. eigenvalues --   -0.67750  -0.67738  -0.66923  -0.66366  -0.65388
 Alpha  occ. eigenvalues --   -0.65204  -0.64067  -0.63807  -0.62129  -0.60307
 Alpha  occ. eigenvalues --   -0.59726  -0.59186  -0.57821  -0.57692  -0.57506
 Alpha  occ. eigenvalues --   -0.57400  -0.57115  -0.56844  -0.56631  -0.56471
 Alpha  occ. eigenvalues --   -0.56132  -0.55848  -0.55582  -0.55468  -0.55191
 Alpha  occ. eigenvalues --   -0.54871  -0.54759  -0.54697  -0.54464  -0.53924
 Alpha  occ. eigenvalues --   -0.53796  -0.53471  -0.53283  -0.52930  -0.52232
 Alpha  occ. eigenvalues --   -0.52165  -0.52037  -0.51776  -0.51582  -0.51395
 Alpha  occ. eigenvalues --   -0.51123  -0.51046  -0.50825  -0.50785  -0.50417
 Alpha  occ. eigenvalues --   -0.50220  -0.50110  -0.49765  -0.49459  -0.49223
 Alpha  occ. eigenvalues --   -0.48829  -0.48582  -0.48514  -0.47819  -0.46081
 Alpha  occ. eigenvalues --   -0.44217  -0.44118  -0.41304  -0.40416  -0.39699
 Alpha  occ. eigenvalues --   -0.38925  -0.38140  -0.36744  -0.35299  -0.34570
 Alpha virt. eigenvalues --   -0.00571   0.00069   0.04662   0.05487   0.06562
 Alpha virt. eigenvalues --    0.06919   0.08694   0.09510   0.11103   0.12720
 Alpha virt. eigenvalues --    0.14838   0.15652   0.16812   0.17607   0.17828

 Mulliken charges:
               1
     1  C   -0.412739
     2  C    0.273479
     3  C   -0.177695
     4  N   -0.582244
     5  C    0.853389
     6  O   -0.505465
     7  N   -0.632551
     8  C    0.778240
     9  F   -0.269332
    10  F   -0.260688
    11  C    0.414336
    12  F   -0.274076
    13  O   -0.488906
    14  C    1.000019
    15  F   -0.245762
    16  F   -0.246045
    17  F   -0.241554
    18  C    0.807719
    19  F   -0.242993
    20  F   -0.240186
    21  F   -0.248306
    22  C    0.849909
    23  O   -0.465739
    24  N   -0.636784
    25  C    0.764796
    26  F   -0.245624
    27  F   -0.273506
    28  C    0.435632
    29  F   -0.270264
    30  O   -0.494987
    31  C    0.978095
    32  F   -0.236236
    33  F   -0.239977
    34  F   -0.234897
    35  C    0.818726
    36  F   -0.243102
    37  F   -0.258611
    38  F   -0.244774
    39  C    0.843590
    40  O   -0.496261
    41  H    0.194687
    42  H    0.198328
    43  H    0.198356
 Sum of Mulliken charges =   0.00000

 Dipole moment (field-independent basis, Debye):
    X=              0.2646    Y=              2.4422    Z=             -1.5621  Tot=              2.9112
 Quadrupole moment (field-independent basis, Debye-Ang):
   XX=           -223.7666   YY=           -211.9090   ZZ=           -206.7799
   XY=             -1.4506   XZ=              2.6143   YZ=              2.6309

 Normal termination of Gaussian 09 at Sun Mar  3 18:13:59 2024.
