 Gaussian 09, Revision D.01,
 Gaussian 09:  ES64L-G09RevD.01 24-Apr-2013

 ----------------------------------------------------------------------
 #p CAM-B3LYP/6-31G(d,p) SCRF=(PCM,Solvent=Generic,Read) NoSymm out=wfn
 ----------------------------------------------------------------------

 -------------------
 Title A201888832_p1
 -------------------
 Symbolic Z-matrix:
 Charge =  1 Multiplicity = 2

                          Input orientation:
 ---------------------------------------------------------------------
 Center     Atomic      Atomic             Coordinates (Angstroms)
 Number     Number       Type             X           Y           Z
 ---------------------------------------------------------------------
      1          6           0       -0.615303    3.076767   -3.767347
      2          6           0       -0.394267    3.024442   -2.587903
      3          6           0       -0.124993    2.955339   -1.142204
      4          7           0       -0.070040    1.564619   -0.704380
      5          6           0       -1.242421    0.948842   -0.333642
      6          8           0       -2.300564    1.567248   -0.277144
      7          7           0       -1.173498   -0.380044   -0.023902
      8          6           0       -2.349790   -1.088749    0.477228
      9          9           0       -2.142755   -2.426341    0.244175
     10          9           0       -2.354786   -0.972529    1.837346
     11          6           0       -3.797477   -0.814224   -0.045674
     12          9           0       -4.623820   -1.792838    0.465641
     13          8           0       -4.459688    0.407683    0.275150
     14          6           0       -4.516939    0.670722    1.653806
     15          9           0       -4.841877   -0.427219    2.355644
     16          9           0       -3.333274    1.143352    2.084570
     17          9           0       -5.455471    1.612362    1.871394
     18          6           0       -3.768666   -1.031946   -1.559280
     19          9           0       -3.363972   -2.280519   -1.890108
     20          9           0       -2.930994   -0.182673   -2.198032
     21          9           0       -4.994813   -0.861196   -2.111775
     22          6           0        0.044173   -0.950002    0.288129
     23          8           0        0.150308   -1.900002    1.058674
     24          7           0        1.152658   -0.371338   -0.284724
     25          6           0        2.434308   -1.042401   -0.109423
     26          9           0        3.272367   -0.702273   -1.125347
     27          9           0        2.218511   -2.380511   -0.333702
     28          6           0        3.144043   -0.898747    1.270815
     29          9           0        2.174666   -0.837351    2.250590
     30          8           0        3.899270   -2.058807    1.661268
     31          6           0        5.107663   -2.226786    0.966636
     32          9           0        5.602557   -3.444919    1.247847
     33          9           0        5.991522   -1.298916    1.362862
     34          9           0        4.913603   -2.132327   -0.354232
     35          6           0        3.897056    0.428767    1.347851
     36          9           0        4.779989    0.597142    0.345291
     37          9           0        4.592546    0.515519    2.510274
     38          9           0        3.046636    1.481029    1.344225
     39          6           0        1.149432    0.928278   -0.711017
     40          8           0        2.183204    1.505581   -1.039015
     41          1           0       -0.811013    3.125929   -4.814309
     42          1           0       -0.908357    3.488730   -0.592093
     43          1           0        0.820265    3.460304   -0.914164
 ---------------------------------------------------------------------

 SCF Done:  E(UCAM-B3LYP) =  -2871.57385385     A.U. after   27 cycles

 Alpha  occ. eigenvalues --  -24.86371 -24.85836 -24.85622 -24.85445 -24.85388
 Alpha  occ. eigenvalues --  -24.85267 -24.85204 -24.85168 -24.85053 -24.84965
 Alpha  occ. eigenvalues --  -24.84956 -24.84950 -24.84846 -24.84804 -24.84658
 Alpha  occ. eigenvalues --  -24.84560 -24.84547 -24.84387 -19.34901 -19.34450
 Alpha  occ. eigenvalues --  -19.29065 -19.28879 -19.28196 -14.57475 -14.57070
 Alpha  occ. eigenvalues --  -14.56959 -10.61210 -10.61015 -10.57755 -10.57333
 Alpha  occ. eigenvalues --  -10.56432 -10.56060 -10.51677 -10.51271 -10.50953
 Alpha  occ. eigenvalues --  -10.50796 -10.50340 -10.48639 -10.48034 -10.45106
 Alpha  occ. eigenvalues --   -1.45077  -1.44543  -1.44086  -1.43752  -1.41371
 Alpha  occ. eigenvalues --   -1.41284  -1.37410  -1.37038  -1.35568  -1.35244
 Alpha  occ. eigenvalues --   -1.35188  -1.34800  -1.34577  -1.34502  -1.34399
 Alpha  occ. eigenvalues --   -1.34059  -1.33774  -1.33705  -1.28107  -1.23169
 Alpha  occ. eigenvalues --   -1.22418  -1.22172  -1.21995  -1.14615  -1.13214
 Alpha  occ. eigenvalues --   -1.12499  -1.05656  -0.96788  -0.95418  -0.94596
 Alpha  occ. eigenvalues --   -0.88475  -0.88065  -0.84262  -0.83716  -0.83365
 Alpha  occ. eigenvalues --   -0.82737  -0.80599  -0.79260  -0.77575  -0.76683
 Alpha  occ. eigenvalues --   -0.75918  -0.75069  -0.74113  -0.73802  -0.72951
 Alpha  occ. eigenvalues --   -0.72538  -0.72068  -0.71680  -0.71284  -0.71053
 Alpha  occ. eigenvalues --   -0.70613  -0.70346  -0.69764  -0.69625  -0.69107
 Alpha  occ. eigenvalues --   -0.68552  -0.67935  -0.67162  -0.66915  -0.66060
 Alpha  occ. eigenvalues --   -0.64747  -0.63732  -0.61970  -0.61076  -0.60846
 Alpha  occ. eigenvalues --   -0.59793  -0.59543  -0.59278  -0.58990  -0.58850
 Alpha  occ. eigenvalues --   -0.58700  -0.58418  -0.58316  -0.58090  -0.57835
 Alpha  occ. eigenvalues --   -0.57445  -0.57154  -0.56870  -0.56726  -0.56546
 Alpha  occ. eigenvalues --   -0.56152  -0.55995  -0.55647  -0.55450  -0.54962
 Alpha  occ. eigenvalues --   -0.54335  -0.54154  -0.53992  -0.53890  -0.53776
 Alpha  occ. eigenvalues --   -0.53505  -0.53431  -0.53274  -0.53028  -0.52748
 Alpha  occ. eigenvalues --   -0.52635  -0.52311  -0.52199  -0.51841  -0.51635
 Alpha  occ. eigenvalues --   -0.51514  -0.51074  -0.50853  -0.50485  -0.50333
 Alpha  occ. eigenvalues --   -0.49666  -0.48316  -0.46400  -0.46278  -0.44488
 Alpha  occ. eigenvalues --   -0.44242  -0.43456  -0.42593  -0.42254  -0.40300
 Alpha virt. eigenvalues --   -0.07291  -0.06259  -0.04279  -0.03246   0.02275
 Alpha virt. eigenvalues --    0.02805   0.04338   0.04840   0.07142   0.08238
 Alpha virt. eigenvalues --    0.09661   0.10532   0.11282   0.12973   0.14171

  Beta  occ. eigenvalues --  -24.86371 -24.85836 -24.85622 -24.85445 -24.85387
  Beta  occ. eigenvalues --  -24.85267 -24.85203 -24.85168 -24.85053 -24.84965
  Beta  occ. eigenvalues --  -24.84956 -24.84950 -24.84846 -24.84804 -24.84658
  Beta  occ. eigenvalues --  -24.84560 -24.84547 -24.84387 -19.34901 -19.34449
  Beta  occ. eigenvalues --  -19.29046 -19.28848 -19.28194 -14.57482 -14.57069
  Beta  occ. eigenvalues --  -14.56958 -10.61210 -10.61015 -10.57755 -10.57333
  Beta  occ. eigenvalues --  -10.56432 -10.56060 -10.51677 -10.51271 -10.50953
  Beta  occ. eigenvalues --  -10.50797 -10.50340 -10.48036 -10.47193 -10.45079
  Beta  occ. eigenvalues --   -1.45077  -1.44542  -1.44086  -1.43752  -1.41370
  Beta  occ. eigenvalues --   -1.41284  -1.37410  -1.37038  -1.35568  -1.35243
  Beta  occ. eigenvalues --   -1.35188  -1.34800  -1.34577  -1.34502  -1.34399
  Beta  occ. eigenvalues --   -1.34059  -1.33773  -1.33704  -1.28093  -1.23139
  Beta  occ. eigenvalues --   -1.22402  -1.22166  -1.21990  -1.14571  -1.13127
  Beta  occ. eigenvalues --   -1.12484  -1.02243  -0.96485  -0.95313  -0.93966
  Beta  occ. eigenvalues --   -0.88450  -0.88053  -0.84241  -0.83624  -0.83345
  Beta  occ. eigenvalues --   -0.82735  -0.80542  -0.79204  -0.77574  -0.76414
  Beta  occ. eigenvalues --   -0.75316  -0.74905  -0.74111  -0.73792  -0.72943
  Beta  occ. eigenvalues --   -0.72514  -0.72046  -0.71676  -0.71246  -0.70919
  Beta  occ. eigenvalues --   -0.70612  -0.70226  -0.69759  -0.69603  -0.69008
  Beta  occ. eigenvalues --   -0.68498  -0.67881  -0.67143  -0.66871  -0.66056
  Beta  occ. eigenvalues --   -0.64593  -0.61973  -0.61468  -0.61012  -0.60813
  Beta  occ. eigenvalues --   -0.59775  -0.59429  -0.59270  -0.58933  -0.58843
  Beta  occ. eigenvalues --   -0.58697  -0.58354  -0.58242  -0.58072  -0.57679
  Beta  occ. eigenvalues --   -0.57432  -0.57060  -0.56868  -0.56693  -0.56527
  Beta  occ. eigenvalues --   -0.56082  -0.55961  -0.55644  -0.55316  -0.54955
  Beta  occ. eigenvalues --   -0.54329  -0.54153  -0.53958  -0.53794  -0.53613
  Beta  occ. eigenvalues --   -0.53424  -0.53260  -0.52939  -0.52752  -0.52317
  Beta  occ. eigenvalues --   -0.52203  -0.51920  -0.51641  -0.51587  -0.51457
  Beta  occ. eigenvalues --   -0.51066  -0.50856  -0.50485  -0.50334  -0.49664
  Beta  occ. eigenvalues --   -0.48293  -0.46381  -0.46264  -0.44436  -0.44137
  Beta  occ. eigenvalues --   -0.43357  -0.42555  -0.42219  -0.40227
  Beta virt. eigenvalues --   -0.29291  -0.05496  -0.04315  -0.03206  -0.01350
  Beta virt. eigenvalues --    0.02302   0.02839   0.04349   0.04948   0.07793
  Beta virt. eigenvalues --    0.08438   0.09918   0.10629   0.11703   0.13149

 Mulliken charges and spin densities:
               1          2
     1  C   -0.032260   0.535426
     2  C    0.492093   0.395464
     3  C   -0.214556   0.004967
     4  N   -0.596105  -0.000614
     5  C    0.867603  -0.000674
     6  O   -0.493240   0.006453
     7  N   -0.634961   0.000537
     8  C    0.780623  -0.000050
     9  F   -0.263398   0.000054
    10  F   -0.254790   0.000010
    11  C    0.414984   0.000012
    12  F   -0.267648   0.000002
    13  O   -0.491618   0.000225
    14  C    1.002271  -0.000009
    15  F   -0.242058   0.000007
    16  F   -0.247548  -0.000001
    17  F   -0.239079   0.000004
    18  C    0.808903  -0.000002
    19  F   -0.239164   0.000001
    20  F   -0.248544   0.000014
    21  F   -0.244620   0.000000
    22  C    0.858440  -0.000235
    23  O   -0.445174   0.001029
    24  N   -0.639409   0.000536
    25  C    0.764910  -0.000067
    26  F   -0.243747   0.000191
    27  F   -0.267734   0.000058
    28  C    0.438502   0.000006
    29  F   -0.268453   0.000010
    30  O   -0.490715   0.000003
    31  C    0.980084  -0.000001
    32  F   -0.233611   0.000000
    33  F   -0.238557   0.000000
    34  F   -0.235660   0.000001
    35  C    0.819530  -0.000014
    36  F   -0.241990   0.000000
    37  F   -0.254414   0.000001
    38  F   -0.248099   0.000003
    39  C    0.858226  -0.001713
    40  O   -0.481160   0.010943
    41  H    0.329291  -0.018474
    42  H    0.291846   0.033520
    43  H    0.291006   0.032376
 Sum of Mulliken charges =   1.00000   1.00000

 Dipole moment (field-independent basis, Debye):
    X=             -1.7516    Y=             15.4522    Z=            -14.1305  Tot=             21.0121
 Quadrupole moment (field-independent basis, Debye-Ang):
   XX=           -213.4039   YY=           -165.6990   ZZ=           -158.7240
   XY=             -7.6941   XZ=              9.3957   YZ=            -37.7700

 Normal termination of Gaussian 09 at Sun Mar  3 18:15:19 2024.
