 Gaussian 09, Revision D.01,
 Gaussian 09:  ES64L-G09RevD.01 24-Apr-2013

 ----------------------------------------------------------------------
 #p CAM-B3LYP/6-31G(d,p) SCRF=(PCM,Solvent=Generic,Read) NoSymm out=wfn
 ----------------------------------------------------------------------

 ---------------
 Title FFKM2_neu
 ---------------
 Symbolic Z-matrix:
 Charge =  0 Multiplicity = 1

                          Input orientation:
 ---------------------------------------------------------------------
 Center     Atomic      Atomic             Coordinates (Angstroms)
 Number     Number       Type             X           Y           Z
 ---------------------------------------------------------------------
      1          9           0        3.883760   -0.060180    0.755110
      2          6           0        3.103940    0.435400   -0.167390
      3          9           0        2.517190    1.531740    0.249300
      4          9           0        3.722430    0.612160   -1.292060
      5          8           0        2.073500   -0.555240   -0.469660
      6          6           0        1.213890   -0.925960    0.420150
      7          9           0        0.673450   -2.073270    0.222130
      8          9           0        1.368230   -0.593170    1.655660
      9          6           0       -0.442070    0.308240   -0.016380
     10          9           0       -0.125200    1.380270    0.632670
     11          9           0       -0.386870    0.431020   -1.297030
     12          6           0       -1.650230   -0.480050    0.537090
     13          9           0       -1.865190   -1.517910   -0.267360
     14          9           0       -1.355690   -0.887620    1.773860
     15          6           0       -2.922350    0.411870    0.573980
     16          9           0       -2.745980    1.386020    1.455720
     17          9           0       -3.107220    0.930410   -0.636690
     18          9           0       -3.955590   -0.333730    0.914740
 ---------------------------------------------------------------------

 SCF Done:  E(RCAM-B3LYP) =  -1463.37517571     A.U. after   13 cycles

 Alpha  occ. eigenvalues --  -24.85441 -24.85147 -24.84988 -24.83701 -24.83142
 Alpha  occ. eigenvalues --  -24.82624 -24.82542 -24.82454 -24.81502 -24.81493
 Alpha  occ. eigenvalues --  -24.81163 -24.81137 -19.31751 -10.60808 -10.52808
 Alpha  occ. eigenvalues --  -10.51510 -10.45971 -10.42849  -1.46294  -1.42342
 Alpha  occ. eigenvalues --   -1.41622  -1.38607  -1.37076  -1.36575  -1.35964
 Alpha  occ. eigenvalues --   -1.34894  -1.33175  -1.32943  -1.32185  -1.31141
 Alpha  occ. eigenvalues --   -1.21824  -0.88063  -0.86022  -0.79804  -0.77633
 Alpha  occ. eigenvalues --   -0.74439  -0.73424  -0.72587  -0.72187  -0.70208
 Alpha  occ. eigenvalues --   -0.69466  -0.69182  -0.68435  -0.66712  -0.66279
 Alpha  occ. eigenvalues --   -0.65940  -0.63601  -0.61514  -0.58254  -0.58201
 Alpha  occ. eigenvalues --   -0.57962  -0.56340  -0.56133  -0.55609  -0.55344
 Alpha  occ. eigenvalues --   -0.55059  -0.54653  -0.54399  -0.53545  -0.53054
 Alpha  occ. eigenvalues --   -0.52449  -0.52208  -0.51815  -0.51683  -0.51093
 Alpha  occ. eigenvalues --   -0.49965  -0.49595  -0.49005  -0.48781  -0.47808
 Alpha  occ. eigenvalues --   -0.47357  -0.42144  -0.28123
 Alpha virt. eigenvalues --    0.06269   0.14453   0.15970   0.18318   0.21418
 Alpha virt. eigenvalues --    0.23748   0.24240   0.25036   0.25964   0.26202
 Alpha virt. eigenvalues --    0.26513   0.29980   0.31530   0.31935   0.36212

 Mulliken charges:
               1
     1  F   -0.210387
     2  C    0.966903
     3  F   -0.213356
     4  F   -0.197899
     5  O   -0.483093
     6  C    0.672470
     7  F   -0.198684
     8  F   -0.201692
     9  C    0.353492
    10  F   -0.235114
    11  F   -0.226808
    12  C    0.476137
    13  F   -0.266727
    14  F   -0.268720
    15  C    0.755540
    16  F   -0.238335
    17  F   -0.245766
    18  F   -0.237961
 Sum of Mulliken charges =   0.00000

 Dipole moment (field-independent basis, Debye):
    X=              2.3772    Y=              0.1974    Z=              0.0918  Tot=              2.3872
 Quadrupole moment (field-independent basis, Debye-Ang):
   XX=            -84.7537   YY=            -91.0416   ZZ=            -92.3151
   XY=             -0.0607   XZ=              0.6232   YZ=             -0.7176

 Normal termination of Gaussian 09 at Sun Feb  2 23:13:05 2025.
