 Gaussian 09, Revision D.01,
 Gaussian 09:  ES64L-G09RevD.01 24-Apr-2013

 ----------------------------------------------------------------------
 #p CAM-B3LYP/6-31G(d,p) opt SCRF=(PCM,Solvent=Generic,Read) NoSymm out
 =wfn
 ----------------------------------------------------------------------

 ---------------
 Title FFKM2_pos
 ---------------
 Symbolic Z-matrix:
 Charge =  1 Multiplicity = 2

 SCF Done:  E(UCAM-B3LYP) =  -1463.04693192     A.U. after   20 cycles
 SCF Done:  E(UCAM-B3LYP) =  -1463.08453862     A.U. after   17 cycles
 SCF Done:  E(UCAM-B3LYP) =  -1463.08693796     A.U. after   15 cycles
 SCF Done:  E(UCAM-B3LYP) =  -1463.10632177     A.U. after   15 cycles
 SCF Done:  E(UCAM-B3LYP) =  -1463.10698373     A.U. after   14 cycles
 SCF Done:  E(UCAM-B3LYP) =  -1463.10718117     A.U. after   13 cycles
 SCF Done:  E(UCAM-B3LYP) =  -1463.10732640     A.U. after   13 cycles
 SCF Done:  E(UCAM-B3LYP) =  -1463.10754446     A.U. after   14 cycles
 SCF Done:  E(UCAM-B3LYP) =  -1463.10767865     A.U. after   13 cycles
 SCF Done:  E(UCAM-B3LYP) =  -1463.10823360     A.U. after   15 cycles
 SCF Done:  E(UCAM-B3LYP) =  -1463.11637435     A.U. after   11 cycles
 SCF Done:  E(UCAM-B3LYP) =  -1463.11636642     A.U. after   13 cycles
 SCF Done:  E(UCAM-B3LYP) =  -1463.11651772     A.U. after   10 cycles
 SCF Done:  E(UCAM-B3LYP) =  -1463.11667722     A.U. after   11 cycles
 SCF Done:  E(UCAM-B3LYP) =  -1463.11675679     A.U. after   11 cycles
 SCF Done:  E(UCAM-B3LYP) =  -1463.11678661     A.U. after   11 cycles
 SCF Done:  E(UCAM-B3LYP) =  -1463.11679696     A.U. after   10 cycles
 SCF Done:  E(UCAM-B3LYP) =  -1463.11679981     A.U. after   10 cycles
 SCF Done:  E(UCAM-B3LYP) =  -1463.11680062     A.U. after    8 cycles
 SCF Done:  E(UCAM-B3LYP) =  -1463.11680086     A.U. after    9 cycles
 Optimization completed.
    -- Stationary point found.

                          Input orientation:
 ---------------------------------------------------------------------
 Center     Atomic      Atomic             Coordinates (Angstroms)
 Number     Number       Type             X           Y           Z
 ---------------------------------------------------------------------
      1          9           0        3.883757   -0.060182    0.755105
      2          6           0        3.103944    0.435400   -0.167392
      3          9           0        2.517193    1.531741    0.249302
      4          9           0        3.722426    0.612165   -1.292058
      5          8           0        2.073496   -0.555239   -0.469665
      6          6           0        1.213893   -0.925957    0.420147
      7          9           0        0.673447   -2.073265    0.222128
      8          9           0        1.368226   -0.593173    1.655660
      9          6           0       -0.442068    0.308239   -0.016383
     10          9           0       -0.125195    1.380265    0.632673
     11          9           0       -0.386867    0.431017   -1.297030
     12          6           0       -1.650234   -0.480049    0.537086
     13          9           0       -1.865195   -1.517906   -0.267361
     14          9           0       -1.355689   -0.887623    1.773861
     15          6           0       -2.922354    0.411869    0.573981
     16          9           0       -2.745976    1.386018    1.455718
     17          9           0       -3.107217    0.930406   -0.636691
     18          9           0       -3.955589   -0.333728    0.914741
 ---------------------------------------------------------------------

 Alpha  occ. eigenvalues --  -24.96721 -24.96348 -24.95348 -24.95210 -24.91218
 Alpha  occ. eigenvalues --  -24.90948 -24.90853 -24.89313 -24.89169 -24.87772
 Alpha  occ. eigenvalues --  -24.87692 -24.87686 -19.44184 -10.67721 -10.67335
 Alpha  occ. eigenvalues --  -10.60086 -10.59495 -10.56011  -1.54720  -1.52083
 Alpha  occ. eigenvalues --   -1.51932  -1.47733  -1.47447  -1.45642  -1.44863
 Alpha  occ. eigenvalues --   -1.42065  -1.41896  -1.39376  -1.38047  -1.37695
 Alpha  occ. eigenvalues --   -1.33599  -0.98351  -0.95853  -0.89963  -0.86624
 Alpha  occ. eigenvalues --   -0.83148  -0.82694  -0.81410  -0.81379  -0.78725
 Alpha  occ. eigenvalues --   -0.78431  -0.77861  -0.77268  -0.75822  -0.74531
 Alpha  occ. eigenvalues --   -0.73077  -0.71775  -0.71307  -0.70626  -0.67183
 Alpha  occ. eigenvalues --   -0.66312  -0.65452  -0.65070  -0.64152  -0.63801
 Alpha  occ. eigenvalues --   -0.62685  -0.62487  -0.62196  -0.61432  -0.60335
 Alpha  occ. eigenvalues --   -0.60242  -0.59856  -0.59697  -0.58111  -0.57891
 Alpha  occ. eigenvalues --   -0.57577  -0.57248  -0.56860  -0.56617  -0.55881
 Alpha  occ. eigenvalues --   -0.54295  -0.50976  -0.44109
 Alpha virt. eigenvalues --   -0.09626   0.04824   0.06740   0.08072   0.10827
 Alpha virt. eigenvalues --    0.13629   0.16191   0.17258   0.18086   0.18865
 Alpha virt. eigenvalues --    0.19491   0.20401   0.22222   0.22974   0.26113

  Beta  occ. eigenvalues --  -24.96484 -24.96075 -24.94990 -24.94863 -24.91217
  Beta  occ. eigenvalues --  -24.90932 -24.90849 -24.89316 -24.89159 -24.87773
  Beta  occ. eigenvalues --  -24.87680 -24.87651 -19.43849 -10.67726 -10.67041
  Beta  occ. eigenvalues --  -10.59432 -10.59398 -10.55918  -1.54189  -1.51859
  Beta  occ. eigenvalues --   -1.51300  -1.47657  -1.46894  -1.44940  -1.44778
  Beta  occ. eigenvalues --   -1.42054  -1.41872  -1.39354  -1.37982  -1.37684
  Beta  occ. eigenvalues --   -1.32925  -0.97361  -0.95314  -0.88677  -0.86121
  Beta  occ. eigenvalues --   -0.82751  -0.82476  -0.80992  -0.79848  -0.78270
  Beta  occ. eigenvalues --   -0.78026  -0.77486  -0.77085  -0.75456  -0.74455
  Beta  occ. eigenvalues --   -0.72958  -0.71367  -0.70772  -0.69132  -0.65987
  Beta  occ. eigenvalues --   -0.65656  -0.65044  -0.64079  -0.63538  -0.63370
  Beta  occ. eigenvalues --   -0.62473  -0.62083  -0.61830  -0.61055  -0.60241
  Beta  occ. eigenvalues --   -0.60164  -0.59758  -0.59580  -0.57909  -0.57591
  Beta  occ. eigenvalues --   -0.57240  -0.56717  -0.56617  -0.56194  -0.55842
  Beta  occ. eigenvalues --   -0.54272  -0.49830
  Beta virt. eigenvalues --   -0.23471  -0.04484   0.05259   0.07034   0.08960
  Beta virt. eigenvalues --    0.12125   0.14622   0.16665   0.17400   0.18349
  Beta virt. eigenvalues --    0.19255   0.19949   0.20504   0.22541   0.23419

 Mulliken charges and spin densities:
               1          2
     1  F   -0.184190   0.003436
     2  C    1.003501  -0.000609
     3  F   -0.198917   0.000406
     4  F   -0.171048   0.001094
     5  O   -0.410609   0.094541
     6  C    0.799368   0.204437
     7  F   -0.112614   0.054740
     8  F   -0.116411   0.047647
     9  C    0.463812   0.375333
    10  F   -0.129336   0.080601
    11  F   -0.118615   0.079885
    12  C    0.492352   0.021889
    13  F   -0.226603   0.003079
    14  F   -0.234171  -0.000263
    15  C    0.798280   0.023131
    16  F   -0.218278   0.001525
    17  F   -0.227279   0.000072
    18  F   -0.209244   0.009058
 Sum of Mulliken charges =   1.00000   1.00000

 Dipole moment (field-independent basis, Debye):
    X=              3.6785    Y=             -0.7014    Z=              1.0055  Tot=              3.8774
 Quadrupole moment (field-independent basis, Debye-Ang):
   XX=            -67.0262   YY=            -83.5969   ZZ=            -86.2122
   XY=             -1.4147   XZ=              0.0515   YZ=             -1.4890

 Normal termination of Gaussian 09 at Sun Feb  2 18:01:17 2025.
