 Gaussian 09, Revision D.01,
 Gaussian 09:  ES64L-G09RevD.01 24-Apr-2013

 ----------------------------------------------------------------------
 #p CAM-B3LYP/6-31G(d,p) SCRF=(PCM,Solvent=Generic,Read) NoSymm out=wfn
 ----------------------------------------------------------------------

 --------------
 Title DBE0_neu
 --------------
 Symbolic Z-matrix:
 Charge =  0 Multiplicity = 1

                          Input orientation:
 ---------------------------------------------------------------------
 Center     Atomic      Atomic             Coordinates (Angstroms)
 Number     Number       Type             X           Y           Z
 ---------------------------------------------------------------------
      1          9           0        7.328310    0.102162    1.906052
      2          6           0        6.378333   -0.793418    2.255619
      3          9           0        6.748577   -1.340696    3.429563
      4          6           0        6.126852   -1.815170    1.169986
      5          9           0        5.460734   -2.885115    1.658397
      6          9           0        7.253408   -2.279916    0.598802
      7          6           0        5.261452   -1.006391    0.248229
      8          9           0        6.078602   -0.055264   -0.329071
      9          6           0        4.688016   -1.864887   -0.849057
     10          9           0        3.853190   -2.792212   -0.314079
     11          6           0        4.022430   -1.060877   -1.967688
     12          8           0        3.501615    0.123921   -1.583708
     13          8           0        3.904142   -1.402953   -3.134788
     14          9           0        5.715692   -2.595423   -1.388817
     15          6           0        4.355238   -0.296563    1.267140
     16          9           0        4.058524    0.955152    0.810279
     17          6           0        3.041587   -0.954382    1.754549
     18          9           0        2.697212   -0.374144    2.955412
     19          6           0        1.878544   -0.733171    0.772815
     20          7           0        1.118009    0.397403    1.021743
     21          6           0       -0.043624    0.736261    0.217117
     22          6           0       -1.301944   -0.042847    0.644537
     23          7           0       -2.534520    0.206451   -0.127332
     24          6           0       -2.430057   -0.371551   -1.479573
     25          6           0       -3.773282   -0.552980   -2.206229
     26          6           0       -4.848059   -1.310090   -1.418515
     27          6           0       -4.429520   -2.714430   -1.007956
     28          6           0       -2.964895    1.614930   -0.157775
     29          6           0       -3.226435    2.210394    1.234198
     30          6           0       -3.717830    3.660857    1.186471
     31          6           0       -5.104965    3.817017    0.582258
     32          8           0        1.651341   -1.474283   -0.181420
     33          9           0        3.241236   -2.263550    2.050331
     34          8           0        5.180809   -0.051521    2.443810
     35          1           0        3.068472    0.461582   -2.399635
     36          1           0        1.230955    0.858384    1.921212
     37          1           0        0.196933    0.536201   -0.831242
     38          1           0       -0.191990    1.813296    0.333612
     39          1           0       -1.083807   -1.118293    0.623032
     40          1           0       -1.497028    0.154264    1.704310
     41          1           0       -1.770386    0.237847   -2.109404
     42          1           0       -1.961265   -1.361403   -1.420228
     43          1           0       -4.175740    0.423894   -2.500149
     44          1           0       -3.581871   -1.088426   -3.146431
     45          1           0       -5.136550   -0.740470   -0.526745
     46          1           0       -5.746045   -1.383102   -2.045080
     47          1           0       -3.613976   -2.691340   -0.277776
     48          1           0       -4.102874   -3.296805   -1.876862
     49          1           0       -5.273616   -3.238227   -0.545822
     50          1           0       -2.237934    2.233935   -0.696877
     51          1           0       -3.902920    1.680229   -0.715821
     52          1           0       -2.303569    2.203087    1.825074
     53          1           0       -3.956589    1.593394    1.772223
     54          1           0       -3.741911    4.049222    2.213109
     55          1           0       -3.002402    4.280707    0.630823
     56          1           0       -5.434541    4.856701    0.668081
     57          1           0       -5.834156    3.186690    1.101904
     58          1           0       -5.115908    3.555919   -0.479654
 ---------------------------------------------------------------------

 SCF Done:  E(RCAM-B3LYP) =  -2108.41702313     A.U. after   13 cycles

 Alpha  occ. eigenvalues --  -24.82991 -24.82932 -24.82698 -24.82430 -24.82113
 Alpha  occ. eigenvalues --  -24.81964 -24.81910 -24.81815 -24.81782 -24.81738
 Alpha  occ. eigenvalues --  -19.31189 -19.30146 -19.25140 -19.22258 -14.45903
 Alpha  occ. eigenvalues --  -14.39938 -10.52041 -10.48931 -10.48494 -10.47951
 Alpha  occ. eigenvalues --  -10.47356 -10.44153 -10.42777 -10.40327 -10.30564
 Alpha  occ. eigenvalues --  -10.28605 -10.27992 -10.27624 -10.25584 -10.25491
 Alpha  occ. eigenvalues --  -10.24927 -10.24628 -10.24497 -10.23800  -1.40176
 Alpha  occ. eigenvalues --   -1.38043  -1.37409  -1.37136  -1.35541  -1.33693
 Alpha  occ. eigenvalues --   -1.32353  -1.31411  -1.30758  -1.30485  -1.22256
 Alpha  occ. eigenvalues --   -1.19283  -1.14450  -1.12008  -1.02422  -0.99772
 Alpha  occ. eigenvalues --   -0.97098  -0.90348  -0.88220  -0.88043  -0.86787
 Alpha  occ. eigenvalues --   -0.84403  -0.81705  -0.80312  -0.78472  -0.77015
 Alpha  occ. eigenvalues --   -0.76211  -0.73818  -0.72546  -0.71842  -0.70870
 Alpha  occ. eigenvalues --   -0.70159  -0.69597  -0.68433  -0.67920  -0.67046
 Alpha  occ. eigenvalues --   -0.66789  -0.65992  -0.65460  -0.65040  -0.64456
 Alpha  occ. eigenvalues --   -0.64212  -0.64034  -0.62478  -0.62208  -0.62122
 Alpha  occ. eigenvalues --   -0.58726  -0.57445  -0.57183  -0.56392  -0.55800
 Alpha  occ. eigenvalues --   -0.55710  -0.55243  -0.54886  -0.54616  -0.53962
 Alpha  occ. eigenvalues --   -0.53721  -0.53443  -0.53150  -0.52756  -0.52622
 Alpha  occ. eigenvalues --   -0.52529  -0.52285  -0.52109  -0.51707  -0.51260
 Alpha  occ. eigenvalues --   -0.51140  -0.50711  -0.50367  -0.50237  -0.49754
 Alpha  occ. eigenvalues --   -0.49552  -0.49387  -0.49076  -0.48656  -0.48222
 Alpha  occ. eigenvalues --   -0.47879  -0.47278  -0.45991  -0.45791  -0.45466
 Alpha  occ. eigenvalues --   -0.45205  -0.44398  -0.44060  -0.42737  -0.42657
 Alpha  occ. eigenvalues --   -0.42461  -0.42412  -0.40956  -0.40856  -0.39485
 Alpha  occ. eigenvalues --   -0.39316  -0.38606  -0.38016  -0.37611  -0.37471
 Alpha  occ. eigenvalues --   -0.37016  -0.35100  -0.34118  -0.26996
 Alpha virt. eigenvalues --   -0.00402   0.01833   0.05366   0.08959   0.09594
 Alpha virt. eigenvalues --    0.11143   0.11716   0.12344   0.13007   0.14228
 Alpha virt. eigenvalues --    0.15059   0.15565   0.15898   0.17293   0.17985

 Mulliken charges:
               1
     1  F   -0.251584
     2  C    0.759721
     3  F   -0.248897
     4  C    0.538610
     5  F   -0.254404
     6  F   -0.257339
     7  C    0.159562
     8  F   -0.295461
     9  C    0.584491
    10  F   -0.245647
    11  C    0.580252
    12  O   -0.482515
    13  O   -0.452859
    14  F   -0.276085
    15  C    0.516317
    16  F   -0.273317
    17  C    0.560704
    18  F   -0.287058
    19  C    0.541805
    20  N   -0.537587
    21  C   -0.056333
    22  C   -0.050643
    23  N   -0.438520
    24  C   -0.032368
    25  C   -0.198970
    26  C   -0.163121
    27  C   -0.320643
    28  C   -0.023236
    29  C   -0.187908
    30  C   -0.184167
    31  C   -0.318742
    32  O   -0.520640
    33  F   -0.258722
    34  O   -0.508315
    35  H    0.359884
    36  H    0.290619
    37  H    0.134701
    38  H    0.121387
    39  H    0.124247
    40  H    0.102349
    41  H    0.072949
    42  H    0.110152
    43  H    0.090699
    44  H    0.094983
    45  H    0.102177
    46  H    0.088439
    47  H    0.111398
    48  H    0.098936
    49  H    0.099352
    50  H    0.072010
    51  H    0.108358
    52  H    0.086144
    53  H    0.106819
    54  H    0.097400
    55  H    0.092983
    56  H    0.104132
    57  H    0.107015
    58  H    0.106484
 Sum of Mulliken charges =   0.00000

 Dipole moment (field-independent basis, Debye):
    X=             -3.5174    Y=              4.5026    Z=              0.5511  Tot=              5.7401
 Quadrupole moment (field-independent basis, Debye-Ang):
   XX=           -213.6307   YY=           -198.5711   ZZ=           -197.8059
   XY=              5.3575   XZ=              0.4114   YZ=             -4.6392

 Normal termination of Gaussian 09 at Mon Feb  3 21:40:49 2025.
