 Gaussian 09, Revision D.01,
 Gaussian 09:  ES64L-G09RevD.01 24-Apr-2013

 ----------------------------------------------------------------------
 #p CAM-B3LYP/6-31G(d,p) SCRF=(PCM,Solvent=Generic,Read) NoSymm out=wfn
 ----------------------------------------------------------------------

 --------------------
 Title A1452355792_p1
 --------------------
 Symbolic Z-matrix:
 Charge =  1 Multiplicity = 2

                          Input orientation:
 ---------------------------------------------------------------------
 Center     Atomic      Atomic             Coordinates (Angstroms)
 Number     Number       Type             X           Y           Z
 ---------------------------------------------------------------------
      1          6           0        3.723631   -3.375758   -0.575192
      2          6           0        2.793541   -2.323640    0.005863
      3          6           0        2.273395   -1.376127   -1.077612
      4          7           0        1.379831   -0.360437   -0.519717
      5          6           0        1.935089    0.821400   -0.074403
      6          8           0        3.152481    1.006332   -0.050643
      7          7           0        1.037061    1.783640    0.338384
      8          6           0        1.555283    3.102394    0.700110
      9          6           0        1.896996    3.182980    2.181263
     10          6           0       -0.312519    1.544467    0.483042
     11          8           0       -1.097761    2.446645    0.769283
     12          7           0       -0.737025    0.260420    0.263303
     13          6           0       -2.141242   -0.066471    0.453053
     14          9           0       -2.173726   -1.313308    1.020617
     15          9           0       -2.687511    0.713664    1.432909
     16          6           0       -3.097436   -0.051494   -0.778327
     17          9           0       -2.697187   -0.940079   -1.733784
     18          8           0       -4.478958   -0.350916   -0.510837
     19          6           0       -4.675384   -1.578536    0.138083
     20          9           0       -5.943686   -1.975593   -0.082030
     21          9           0       -4.508095   -1.410062    1.460594
     22          9           0       -3.843208   -2.524834   -0.319803
     23          6           0       -3.056708    1.338752   -1.402640
     24          9           0       -3.477022    2.302385   -0.557672
     25          9           0       -1.814120    1.665907   -1.831297
     26          9           0       -3.862010    1.404576   -2.495171
     27          6           0        0.044410   -0.668691   -0.374825
     28          8           0       -0.423530   -1.721444   -0.804992
     29          1           0        4.083382   -4.041895    0.215194
     30          1           0        3.207450   -3.984894   -1.324060
     31          1           0        4.593646   -2.910929   -1.049847
     32          1           0        1.953373   -2.820154    0.505530
     33          1           0        3.326873   -1.755606    0.777157
     34          1           0        3.115557   -0.883218   -1.577921
     35          1           0        1.738527   -1.947014   -1.845876
     36          1           0        2.449683    3.322875    0.106355
     37          1           0        0.812703    3.870138    0.455337
     38          1           0        2.284220    4.176168    2.428389
     39          1           0        2.656441    2.442140    2.451683
     40          1           0        1.013552    2.996215    2.800497
 ---------------------------------------------------------------------

 SCF Done:  E(UCAM-B3LYP) =  -1827.37955099     A.U. after   52 cycles

 Alpha  occ. eigenvalues --  -24.87146 -24.86656 -24.86121 -24.85914 -24.85619
 Alpha  occ. eigenvalues --  -24.85509 -24.84949 -24.84902 -24.84816 -19.35352
 Alpha  occ. eigenvalues --  -19.34870 -19.31601 -19.30386 -14.65271 -14.59174
 Alpha  occ. eigenvalues --  -14.58956 -10.61315 -10.58005 -10.57660 -10.54189
 Alpha  occ. eigenvalues --  -10.52548 -10.52099 -10.51731 -10.39634 -10.36485
 Alpha  occ. eigenvalues --  -10.33347 -10.29901 -10.29428  -1.45015  -1.44395
 Alpha  occ. eigenvalues --   -1.42550  -1.38616  -1.35898  -1.35345  -1.35224
 Alpha  occ. eigenvalues --   -1.34454  -1.34322  -1.31200  -1.26007  -1.24565
 Alpha  occ. eigenvalues --   -1.22721  -1.18224  -1.15433  -1.13901  -0.97490
 Alpha  occ. eigenvalues --   -0.95972  -0.92582  -0.90599  -0.88117  -0.85812
 Alpha  occ. eigenvalues --   -0.83376  -0.83054  -0.81809  -0.79574  -0.77544
 Alpha  occ. eigenvalues --   -0.76000  -0.74864  -0.74469  -0.73315  -0.72128
 Alpha  occ. eigenvalues --   -0.71489  -0.70838  -0.70320  -0.69904  -0.68657
 Alpha  occ. eigenvalues --   -0.68050  -0.67159  -0.64328  -0.63794  -0.62767
 Alpha  occ. eigenvalues --   -0.62153  -0.61745  -0.61070  -0.60320  -0.59880
 Alpha  occ. eigenvalues --   -0.59557  -0.59148  -0.58855  -0.58278  -0.57549
 Alpha  occ. eigenvalues --   -0.57134  -0.56610  -0.56074  -0.55744  -0.55233
 Alpha  occ. eigenvalues --   -0.54827  -0.54678  -0.54493  -0.53520  -0.53299
 Alpha  occ. eigenvalues --   -0.53184  -0.52321  -0.52051  -0.51930  -0.51550
 Alpha  occ. eigenvalues --   -0.51328  -0.50339  -0.49268  -0.48719  -0.48677
 Alpha  occ. eigenvalues --   -0.47965  -0.47307  -0.46405  -0.46180  -0.45973
 Alpha  occ. eigenvalues --   -0.45378  -0.44920  -0.43226  -0.42769
 Alpha virt. eigenvalues --   -0.06892  -0.05637   0.02380   0.02962   0.05189
 Alpha virt. eigenvalues --    0.08145   0.10326   0.10719   0.10869   0.12446
 Alpha virt. eigenvalues --    0.13141   0.14504   0.15025   0.15132   0.16094

  Beta  occ. eigenvalues --  -24.87146 -24.86654 -24.86116 -24.85910 -24.85618
  Beta  occ. eigenvalues --  -24.85509 -24.84949 -24.84902 -24.84815 -19.35352
  Beta  occ. eigenvalues --  -19.34207 -19.31493 -19.30181 -14.64153 -14.59228
  Beta  occ. eigenvalues --  -14.58571 -10.61315 -10.58005 -10.57659 -10.54408
  Beta  occ. eigenvalues --  -10.52663 -10.52101 -10.51806 -10.39590 -10.36476
  Beta  occ. eigenvalues --  -10.33185 -10.29852 -10.29408  -1.45015  -1.44395
  Beta  occ. eigenvalues --   -1.42546  -1.38608  -1.35896  -1.35337  -1.35221
  Beta  occ. eigenvalues --   -1.34453  -1.34320  -1.30352  -1.25254  -1.24144
  Beta  occ. eigenvalues --   -1.22721  -1.16880  -1.14774  -1.13123  -0.97349
  Beta  occ. eigenvalues --   -0.95556  -0.92317  -0.90438  -0.87881  -0.85504
  Beta  occ. eigenvalues --   -0.83212  -0.83004  -0.81602  -0.79403  -0.77363
  Beta  occ. eigenvalues --   -0.75898  -0.74593  -0.73904  -0.73235  -0.72012
  Beta  occ. eigenvalues --   -0.71472  -0.70826  -0.70173  -0.68821  -0.68288
  Beta  occ. eigenvalues --   -0.67997  -0.66598  -0.63536  -0.63149  -0.62576
  Beta  occ. eigenvalues --   -0.61681  -0.60670  -0.60395  -0.60037  -0.59757
  Beta  occ. eigenvalues --   -0.59425  -0.58975  -0.58630  -0.57823  -0.57510
  Beta  occ. eigenvalues --   -0.57114  -0.56502  -0.55980  -0.55565  -0.54988
  Beta  occ. eigenvalues --   -0.54678  -0.54488  -0.53949  -0.53407  -0.53220
  Beta  occ. eigenvalues --   -0.53030  -0.52045  -0.51897  -0.51540  -0.51437
  Beta  occ. eigenvalues --   -0.51059  -0.49206  -0.49080  -0.48479  -0.47898
  Beta  occ. eigenvalues --   -0.46980  -0.46669  -0.46195  -0.45421  -0.45171
  Beta  occ. eigenvalues --   -0.43994  -0.42346  -0.41093
  Beta virt. eigenvalues --   -0.28428  -0.06108  -0.04464   0.02393   0.03452
  Beta virt. eigenvalues --    0.05860   0.08436   0.10497   0.10805   0.11142
  Beta virt. eigenvalues --    0.12519   0.13229   0.14659   0.15139   0.15214

 Mulliken charges and spin densities:
               1          2
     1  C   -0.332631   0.012509
     2  C   -0.208308   0.082895
     3  C   -0.099048   0.016626
     4  N   -0.457925   0.508192
     5  C    0.866983  -0.071087
     6  O   -0.437152   0.045904
     7  N   -0.534368   0.176811
     8  C   -0.094455   0.001879
     9  C   -0.332973   0.023645
    10  C    0.866661  -0.043061
    11  O   -0.439892   0.080850
    12  N   -0.639524  -0.015437
    13  C    0.760552  -0.000885
    14  F   -0.259246   0.001119
    15  F   -0.234935   0.000612
    16  C    0.437527  -0.000612
    17  F   -0.253127   0.000903
    18  O   -0.506166  -0.000028
    19  C    1.003725  -0.000003
    20  F   -0.236543  -0.000004
    21  F   -0.243135   0.000030
    22  F   -0.241199  -0.000001
    23  C    0.811190   0.000003
    24  F   -0.230551   0.000086
    25  F   -0.255965   0.000071
    26  F   -0.246241   0.000003
    27  C    0.883663  -0.125516
    28  O   -0.375668   0.261279
    29  H    0.154407   0.010680
    30  H    0.139602  -0.000332
    31  H    0.140008   0.000068
    32  H    0.160489  -0.001155
    33  H    0.162039  -0.002632
    34  H    0.219696   0.014609
    35  H    0.219231   0.013164
    36  H    0.188319   0.004935
    37  H    0.193907   0.002554
    38  H    0.161724   0.002353
    39  H    0.143387  -0.000963
    40  H    0.145939  -0.000062
 Sum of Mulliken charges =   1.00000   1.00000

 Dipole moment (field-independent basis, Debye):
    X=              8.6549    Y=             -0.1839    Z=             -0.6653  Tot=              8.6824
 Quadrupole moment (field-independent basis, Debye-Ang):
   XX=           -136.9153   YY=           -129.1017   ZZ=           -144.2222
   XY=             -3.8836   XZ=             -1.5677   YZ=              5.3986

 Normal termination of Gaussian 09 at Sun Mar  3 17:40:21 2024.
