 Gaussian 09, Revision D.01,
 Gaussian 09:  ES64L-G09RevD.01 24-Apr-2013

 ----------------------------------------------------------------------
 #p CAM-B3LYP/6-31G(d,p) SCRF=(PCM,Solvent=Generic,Read) NoSymm out=wfn
 ----------------------------------------------------------------------

 -------------------
 Title A1452355792_0
 -------------------
 Symbolic Z-matrix:
 Charge =  0 Multiplicity = 1

                          Input orientation:
 ---------------------------------------------------------------------
 Center     Atomic      Atomic             Coordinates (Angstroms)
 Number     Number       Type             X           Y           Z
 ---------------------------------------------------------------------
      1          6           0        3.723631   -3.375758   -0.575192
      2          6           0        2.793541   -2.323640    0.005863
      3          6           0        2.273395   -1.376127   -1.077612
      4          7           0        1.379831   -0.360437   -0.519717
      5          6           0        1.935089    0.821400   -0.074403
      6          8           0        3.152481    1.006332   -0.050643
      7          7           0        1.037061    1.783640    0.338384
      8          6           0        1.555283    3.102394    0.700110
      9          6           0        1.896996    3.182980    2.181263
     10          6           0       -0.312519    1.544467    0.483042
     11          8           0       -1.097761    2.446645    0.769283
     12          7           0       -0.737025    0.260420    0.263303
     13          6           0       -2.141242   -0.066471    0.453053
     14          9           0       -2.173726   -1.313308    1.020617
     15          9           0       -2.687511    0.713664    1.432909
     16          6           0       -3.097436   -0.051494   -0.778327
     17          9           0       -2.697187   -0.940079   -1.733784
     18          8           0       -4.478958   -0.350916   -0.510837
     19          6           0       -4.675384   -1.578536    0.138083
     20          9           0       -5.943686   -1.975593   -0.082030
     21          9           0       -4.508095   -1.410062    1.460594
     22          9           0       -3.843208   -2.524834   -0.319803
     23          6           0       -3.056708    1.338752   -1.402640
     24          9           0       -3.477022    2.302385   -0.557672
     25          9           0       -1.814120    1.665907   -1.831297
     26          9           0       -3.862010    1.404576   -2.495171
     27          6           0        0.044410   -0.668691   -0.374825
     28          8           0       -0.423530   -1.721444   -0.804992
     29          1           0        4.083382   -4.041895    0.215194
     30          1           0        3.207450   -3.984894   -1.324060
     31          1           0        4.593646   -2.910929   -1.049847
     32          1           0        1.953373   -2.820154    0.505530
     33          1           0        3.326873   -1.755606    0.777157
     34          1           0        3.115557   -0.883218   -1.577921
     35          1           0        1.738527   -1.947014   -1.845876
     36          1           0        2.449683    3.322875    0.106355
     37          1           0        0.812703    3.870138    0.455337
     38          1           0        2.284220    4.176168    2.428389
     39          1           0        2.656441    2.442140    2.451683
     40          1           0        1.013552    2.996215    2.800497
 ---------------------------------------------------------------------

 SCF Done:  E(RCAM-B3LYP) =  -1827.69557830     A.U. after   13 cycles

 Alpha  occ. eigenvalues --  -24.83977 -24.83261 -24.83054 -24.82898 -24.82689
 Alpha  occ. eigenvalues --  -24.82606 -24.82518 -24.82493 -24.81840 -19.32682
 Alpha  occ. eigenvalues --  -19.23033 -19.22850 -19.22680 -14.52274 -14.49402
 Alpha  occ. eigenvalues --  -14.49397 -10.59132 -10.55145 -10.53154 -10.48720
 Alpha  occ. eigenvalues --  -10.44890 -10.44859 -10.43804 -10.31130 -10.30933
 Alpha  occ. eigenvalues --  -10.26247 -10.25771 -10.25048  -1.42656  -1.41679
 Alpha  occ. eigenvalues --   -1.38524  -1.35305  -1.33047  -1.32917  -1.32623
 Alpha  occ. eigenvalues --   -1.31855  -1.31034  -1.21632  -1.20067  -1.16590
 Alpha  occ. eigenvalues --   -1.16322  -1.08642  -1.06398  -1.04842  -0.93327
 Alpha  occ. eigenvalues --   -0.88579  -0.86361  -0.84271  -0.80814  -0.80537
 Alpha  occ. eigenvalues --   -0.78541  -0.77532  -0.75047  -0.73500  -0.72448
 Alpha  occ. eigenvalues --   -0.71848  -0.71105  -0.70176  -0.69091  -0.68314
 Alpha  occ. eigenvalues --   -0.68048  -0.67551  -0.67289  -0.65342  -0.64033
 Alpha  occ. eigenvalues --   -0.61497  -0.59726  -0.59376  -0.57015  -0.56758
 Alpha  occ. eigenvalues --   -0.56246  -0.56084  -0.56025  -0.55170  -0.54744
 Alpha  occ. eigenvalues --   -0.54528  -0.54182  -0.53991  -0.53533  -0.52965
 Alpha  occ. eigenvalues --   -0.52808  -0.52731  -0.52164  -0.51855  -0.51733
 Alpha  occ. eigenvalues --   -0.51225  -0.50689  -0.50517  -0.50279  -0.49832
 Alpha  occ. eigenvalues --   -0.49406  -0.48634  -0.48556  -0.48073  -0.46308
 Alpha  occ. eigenvalues --   -0.45817  -0.45436  -0.44844  -0.44373  -0.43595
 Alpha  occ. eigenvalues --   -0.42252  -0.41765  -0.40074  -0.38824  -0.38615
 Alpha  occ. eigenvalues --   -0.37884  -0.35893  -0.35108  -0.34574
 Alpha virt. eigenvalues --    0.01615   0.02523   0.06471   0.07864   0.12174
 Alpha virt. eigenvalues --    0.14113   0.15125   0.15924   0.16433   0.17233
 Alpha virt. eigenvalues --    0.18505   0.19222   0.19789   0.20004   0.20095

 Mulliken charges:
               1
     1  C   -0.328383
     2  C   -0.185694
     3  C   -0.052588
     4  N   -0.577335
     5  C    0.827765
     6  O   -0.524753
     7  N   -0.568345
     8  C   -0.064655
     9  C   -0.326693
    10  C    0.829830
    11  O   -0.515626
    12  N   -0.634330
    13  C    0.759625
    14  F   -0.269522
    15  F   -0.249094
    16  C    0.435083
    17  F   -0.254852
    18  O   -0.517612
    19  C    0.999125
    20  F   -0.242535
    21  F   -0.245375
    22  F   -0.240641
    23  C    0.806813
    24  F   -0.235532
    25  F   -0.252637
    26  F   -0.254972
    27  C    0.832910
    28  O   -0.512310
    29  H    0.115157
    30  H    0.114142
    31  H    0.113654
    32  H    0.117237
    33  H    0.117683
    34  H    0.147567
    35  H    0.149704
    36  H    0.152160
    37  H    0.154788
    38  H    0.127144
    39  H    0.127066
    40  H    0.126030
 Sum of Mulliken charges =   0.00000

 Dipole moment (field-independent basis, Debye):
    X=              3.3520    Y=              0.3169    Z=              0.1009  Tot=              3.3684
 Quadrupole moment (field-independent basis, Debye-Ang):
   XX=           -164.7009   YY=           -153.1195   ZZ=           -152.4819
   XY=              0.1707   XZ=             -0.1852   YZ=             -0.3790

 Normal termination of Gaussian 09 at Sun Mar  3 17:38:20 2024.
