 Gaussian 09, Revision D.01,
 Gaussian 09:  ES64L-G09RevD.01 24-Apr-2013

 ----------------------------------------------------------------------
 #p CAM-B3LYP/6-31G(d,p) SCRF=(PCM,Solvent=Generic,Read) NoSymm out=wfn
 ----------------------------------------------------------------------

 --------------------
 Title A1445123342_p1
 --------------------
 Symbolic Z-matrix:
 Charge =  1 Multiplicity = 2

                          Input orientation:
 ---------------------------------------------------------------------
 Center     Atomic      Atomic             Coordinates (Angstroms)
 Number     Number       Type             X           Y           Z
 ---------------------------------------------------------------------
      1          6           0       -4.999680    0.766506    0.891153
      2          6           0       -3.647731    0.863811    0.201176
      3          6           0       -3.611445    0.022779   -1.076052
      4          6           0       -2.296725    0.164129   -1.853839
      5          7           0       -1.146688   -0.391783   -1.137455
      6          6           0       -0.942621   -1.755986   -1.204383
      7          8           0       -1.700579   -2.503879   -1.823833
      8          7           0        0.185343   -2.225555   -0.566791
      9          6           0        0.516440   -3.632117   -0.720124
     10          6           0        1.112641   -1.394892    0.019841
     11          8           0        2.251377   -1.783291    0.277970
     12          7           0        0.710518   -0.108873    0.260636
     13          6           0        1.645175    0.780923    0.933903
     14          9           0        0.930361    1.765082    1.553335
     15          9           0        2.208922    0.118185    1.981319
     16          6           0        2.737974    1.403618    0.021902
     17          9           0        2.110513    2.073192   -1.005258
     18          8           0        3.534703    0.447192   -0.688706
     19          6           0        4.663122   -0.023854    0.009341
     20          9           0        5.145273   -1.106776   -0.626106
     21          9           0        4.360442   -0.347714    1.271380
     22          9           0        5.612046    0.927026    0.009968
     23          6           0        3.473564    2.463742    0.852928
     24          9           0        4.427429    3.078019    0.108719
     25          9           0        2.652629    3.441501    1.296638
     26          9           0        4.093039    1.947101    1.934827
     27          6           0       -0.304513    0.468682   -0.460629
     28          8           0       -0.449526    1.689053   -0.520778
     29          1           0       -5.004185    1.372215    1.802763
     30          1           0       -5.224274   -0.268137    1.169394
     31          1           0       -5.800475    1.129030    0.238768
     32          1           0       -3.441339    1.913516   -0.037144
     33          1           0       -2.872928    0.527508    0.898727
     34          1           0       -4.432372    0.335440   -1.733199
     35          1           0       -3.789726   -1.029477   -0.824477
     36          1           0       -2.123886    1.217905   -2.099364
     37          1           0       -2.396604   -0.364324   -2.809943
     38          1           0        1.028105   -3.763369   -1.678934
     39          1           0        1.175006   -3.970171    0.085490
     40          1           0       -0.389324   -4.245957   -0.714765
 ---------------------------------------------------------------------

 SCF Done:  E(UCAM-B3LYP) =  -1827.37186957     A.U. after   34 cycles

 Alpha  occ. eigenvalues --  -24.86512 -24.86226 -24.86220 -24.85356 -24.85315
 Alpha  occ. eigenvalues --  -24.85203 -24.85175 -24.84999 -24.84488 -19.35599
 Alpha  occ. eigenvalues --  -19.35293 -19.31239 -19.29670 -14.65609 -14.58612
 Alpha  occ. eigenvalues --  -14.57855 -10.61463 -10.57530 -10.57048 -10.54231
 Alpha  occ. eigenvalues --  -10.52218 -10.52093 -10.51150 -10.40115 -10.35489
 Alpha  occ. eigenvalues --  -10.33604 -10.30446 -10.28165  -1.45149  -1.43772
 Alpha  occ. eigenvalues --   -1.42548  -1.38444  -1.35878  -1.35122  -1.34870
 Alpha  occ. eigenvalues --   -1.34441  -1.33888  -1.31126  -1.25903  -1.24162
 Alpha  occ. eigenvalues --   -1.22860  -1.18190  -1.14989  -1.13201  -0.97213
 Alpha  occ. eigenvalues --   -0.95808  -0.90729  -0.90643  -0.89313  -0.84760
 Alpha  occ. eigenvalues --   -0.84335  -0.83159  -0.80977  -0.79233  -0.78062
 Alpha  occ. eigenvalues --   -0.76308  -0.74595  -0.73564  -0.72642  -0.71684
 Alpha  occ. eigenvalues --   -0.71210  -0.70956  -0.70240  -0.69315  -0.69059
 Alpha  occ. eigenvalues --   -0.67490  -0.66715  -0.64075  -0.63467  -0.62590
 Alpha  occ. eigenvalues --   -0.62051  -0.61063  -0.60848  -0.60003  -0.59393
 Alpha  occ. eigenvalues --   -0.59016  -0.58889  -0.58689  -0.58246  -0.57656
 Alpha  occ. eigenvalues --   -0.57388  -0.56503  -0.56451  -0.55869  -0.55404
 Alpha  occ. eigenvalues --   -0.55216  -0.54815  -0.53953  -0.53666  -0.53298
 Alpha  occ. eigenvalues --   -0.52759  -0.52473  -0.52068  -0.51692  -0.51127
 Alpha  occ. eigenvalues --   -0.50929  -0.50777  -0.50297  -0.49756  -0.48821
 Alpha  occ. eigenvalues --   -0.47959  -0.47141  -0.46232  -0.45282  -0.44526
 Alpha  occ. eigenvalues --   -0.44042  -0.43619  -0.42689  -0.42186
 Alpha virt. eigenvalues --   -0.06804  -0.05249   0.01966   0.03555   0.06085
 Alpha virt. eigenvalues --    0.08983   0.09298   0.10029   0.11298   0.12492
 Alpha virt. eigenvalues --    0.12793   0.14161   0.14440   0.15123   0.16169

  Beta  occ. eigenvalues --  -24.86509 -24.86219 -24.86219 -24.85356 -24.85315
  Beta  occ. eigenvalues --  -24.85203 -24.85175 -24.84999 -24.84488 -19.35597
  Beta  occ. eigenvalues --  -19.34522 -19.31108 -19.29586 -14.64451 -14.58674
  Beta  occ. eigenvalues --  -14.57615 -10.61463 -10.57531 -10.57047 -10.54472
  Beta  occ. eigenvalues --  -10.52338 -10.52095 -10.51186 -10.40049 -10.35488
  Beta  occ. eigenvalues --  -10.33424 -10.30423 -10.28126  -1.45149  -1.43772
  Beta  occ. eigenvalues --   -1.42545  -1.38431  -1.35874  -1.35121  -1.34867
  Beta  occ. eigenvalues --   -1.34440  -1.33888  -1.30195  -1.25077  -1.23853
  Beta  occ. eigenvalues --   -1.22832  -1.16696  -1.14454  -1.12676  -0.96828
  Beta  occ. eigenvalues --   -0.95559  -0.90491  -0.90420  -0.89137  -0.84703
  Beta  occ. eigenvalues --   -0.84081  -0.82855  -0.80843  -0.78959  -0.77807
  Beta  occ. eigenvalues --   -0.76264  -0.74512  -0.73470  -0.72563  -0.71446
  Beta  occ. eigenvalues --   -0.71033  -0.70335  -0.69766  -0.69147  -0.68268
  Beta  occ. eigenvalues --   -0.67092  -0.66521  -0.63299  -0.62796  -0.61868
  Beta  occ. eigenvalues --   -0.61326  -0.60476  -0.60444  -0.59802  -0.59206
  Beta  occ. eigenvalues --   -0.58977  -0.58729  -0.58450  -0.58028  -0.57536
  Beta  occ. eigenvalues --   -0.57309  -0.56406  -0.55954  -0.55819  -0.55168
  Beta  occ. eigenvalues --   -0.54906  -0.53925  -0.53610  -0.53292  -0.53057
  Beta  occ. eigenvalues --   -0.52736  -0.52387  -0.52028  -0.51683  -0.51016
  Beta  occ. eigenvalues --   -0.50767  -0.50474  -0.50244  -0.49306  -0.47294
  Beta  occ. eigenvalues --   -0.46688  -0.45976  -0.45454  -0.44141  -0.43609
  Beta  occ. eigenvalues --   -0.43268  -0.42117  -0.40959
  Beta virt. eigenvalues --   -0.28222  -0.05742  -0.04252   0.01971   0.04417
  Beta virt. eigenvalues --    0.06318   0.09127   0.09480   0.10439   0.11415
  Beta virt. eigenvalues --    0.12609   0.12948   0.14222   0.14535   0.15163

 Mulliken charges and spin densities:
               1          2
     1  C   -0.326989   0.018417
     2  C   -0.202111   0.011435
     3  C   -0.202380   0.091698
     4  C   -0.121747   0.025919
     5  N   -0.442198   0.529059
     6  C    0.861394  -0.071103
     7  O   -0.440739   0.056603
     8  N   -0.545126   0.109452
     9  C   -0.201407  -0.001983
    10  C    0.856308  -0.020767
    11  O   -0.451737   0.033060
    12  N   -0.631323  -0.019433
    13  C    0.767606  -0.000440
    14  F   -0.250144   0.000842
    15  F   -0.239872   0.000309
    16  C    0.443384  -0.000675
    17  F   -0.264664   0.001377
    18  O   -0.508266   0.000377
    19  C    1.015374  -0.000078
    20  F   -0.241033   0.000005
    21  F   -0.240038   0.000011
    22  F   -0.243291   0.000008
    23  C    0.808526  -0.000227
    24  F   -0.253977  -0.000050
    25  F   -0.241540   0.000018
    26  F   -0.242557   0.000006
    27  C    0.878264  -0.138067
    28  O   -0.365550   0.303356
    29  H    0.135361   0.006557
    30  H    0.125020  -0.000172
    31  H    0.129334  -0.000462
    32  H    0.138975   0.002742
    33  H    0.111426  -0.000731
    34  H    0.179116   0.002588
    35  H    0.164034  -0.001817
    36  H    0.225756   0.006972
    37  H    0.235544   0.035239
    38  H    0.195193   0.014139
    39  H    0.194356   0.003108
    40  H    0.191716   0.002708
 Sum of Mulliken charges =   1.00000   1.00000

 Dipole moment (field-independent basis, Debye):
    X=             -7.2816    Y=             -3.8576    Z=             -4.4543  Tot=              9.3672
 Quadrupole moment (field-independent basis, Debye-Ang):
   XX=           -128.5251   YY=           -138.9235   ZZ=           -142.1496
   XY=             -6.1812   XZ=              4.9828   YZ=              0.3937

 Normal termination of Gaussian 09 at Sun Mar  3 17:40:28 2024.
