 Gaussian 09, Revision D.01,
 Gaussian 09:  ES64L-G09RevD.01 24-Apr-2013

 ----------------------------------------------------------------------
 #p CAM-B3LYP/6-31G(d,p) SCRF=(PCM,Solvent=Generic,Read) NoSymm out=wfn
 ----------------------------------------------------------------------

 -------------------
 Title A1445123342_0
 -------------------
 Symbolic Z-matrix:
 Charge =  0 Multiplicity = 1

                          Input orientation:
 ---------------------------------------------------------------------
 Center     Atomic      Atomic             Coordinates (Angstroms)
 Number     Number       Type             X           Y           Z
 ---------------------------------------------------------------------
      1          6           0       -4.999680    0.766506    0.891153
      2          6           0       -3.647731    0.863811    0.201176
      3          6           0       -3.611445    0.022779   -1.076052
      4          6           0       -2.296725    0.164129   -1.853839
      5          7           0       -1.146688   -0.391783   -1.137455
      6          6           0       -0.942621   -1.755986   -1.204383
      7          8           0       -1.700579   -2.503879   -1.823833
      8          7           0        0.185343   -2.225555   -0.566791
      9          6           0        0.516440   -3.632117   -0.720124
     10          6           0        1.112641   -1.394892    0.019841
     11          8           0        2.251377   -1.783291    0.277970
     12          7           0        0.710518   -0.108873    0.260636
     13          6           0        1.645175    0.780923    0.933903
     14          9           0        0.930361    1.765082    1.553335
     15          9           0        2.208922    0.118185    1.981319
     16          6           0        2.737974    1.403618    0.021902
     17          9           0        2.110513    2.073192   -1.005258
     18          8           0        3.534703    0.447192   -0.688706
     19          6           0        4.663122   -0.023854    0.009341
     20          9           0        5.145273   -1.106776   -0.626106
     21          9           0        4.360442   -0.347714    1.271380
     22          9           0        5.612046    0.927026    0.009968
     23          6           0        3.473564    2.463742    0.852928
     24          9           0        4.427429    3.078019    0.108719
     25          9           0        2.652629    3.441501    1.296638
     26          9           0        4.093039    1.947101    1.934827
     27          6           0       -0.304513    0.468682   -0.460629
     28          8           0       -0.449526    1.689053   -0.520778
     29          1           0       -5.004185    1.372215    1.802763
     30          1           0       -5.224274   -0.268137    1.169394
     31          1           0       -5.800475    1.129030    0.238768
     32          1           0       -3.441339    1.913516   -0.037144
     33          1           0       -2.872928    0.527508    0.898727
     34          1           0       -4.432372    0.335440   -1.733199
     35          1           0       -3.789726   -1.029477   -0.824477
     36          1           0       -2.123886    1.217905   -2.099364
     37          1           0       -2.396604   -0.364324   -2.809943
     38          1           0        1.028105   -3.763369   -1.678934
     39          1           0        1.175006   -3.970171    0.085490
     40          1           0       -0.389324   -4.245957   -0.714765
 ---------------------------------------------------------------------

 SCF Done:  E(RCAM-B3LYP) =  -1827.68669316     A.U. after   13 cycles

 Alpha  occ. eigenvalues --  -24.83154 -24.83081 -24.83005 -24.83002 -24.82921
 Alpha  occ. eigenvalues --  -24.82732 -24.82366 -24.82327 -24.82304 -19.32703
 Alpha  occ. eigenvalues --  -19.23217 -19.22722 -19.22568 -14.51850 -14.49577
 Alpha  occ. eigenvalues --  -14.49314 -10.59146 -10.55087 -10.52625 -10.48760
 Alpha  occ. eigenvalues --  -10.44888 -10.44708 -10.43729 -10.30751 -10.30727
 Alpha  occ. eigenvalues --  -10.25998 -10.25258 -10.24397  -1.42881  -1.41449
 Alpha  occ. eigenvalues --   -1.38685  -1.35036  -1.33357  -1.32938  -1.32322
 Alpha  occ. eigenvalues --   -1.31868  -1.31067  -1.21585  -1.20053  -1.16489
 Alpha  occ. eigenvalues --   -1.16218  -1.08529  -1.06232  -1.04761  -0.92632
 Alpha  occ. eigenvalues --   -0.88815  -0.85170  -0.82704  -0.82625  -0.81989
 Alpha  occ. eigenvalues --   -0.77773  -0.77093  -0.74709  -0.73338  -0.72921
 Alpha  occ. eigenvalues --   -0.71768  -0.71364  -0.70498  -0.69093  -0.68266
 Alpha  occ. eigenvalues --   -0.68020  -0.67044  -0.65549  -0.65396  -0.63380
 Alpha  occ. eigenvalues --   -0.61442  -0.59570  -0.58938  -0.57492  -0.56830
 Alpha  occ. eigenvalues --   -0.56254  -0.55938  -0.55485  -0.55279  -0.55133
 Alpha  occ. eigenvalues --   -0.54652  -0.54319  -0.53870  -0.53478  -0.53194
 Alpha  occ. eigenvalues --   -0.53075  -0.52461  -0.52161  -0.51847  -0.51714
 Alpha  occ. eigenvalues --   -0.50745  -0.50464  -0.49975  -0.49681  -0.49288
 Alpha  occ. eigenvalues --   -0.49067  -0.48839  -0.48508  -0.48062  -0.47653
 Alpha  occ. eigenvalues --   -0.47548  -0.46861  -0.45161  -0.43535  -0.43017
 Alpha  occ. eigenvalues --   -0.41120  -0.39616  -0.39394  -0.39080  -0.38190
 Alpha  occ. eigenvalues --   -0.37330  -0.35821  -0.34962  -0.34599
 Alpha virt. eigenvalues --    0.01719   0.02587   0.05622   0.09419   0.12317
 Alpha virt. eigenvalues --    0.14099   0.14473   0.15854   0.17154   0.17370
 Alpha virt. eigenvalues --    0.17917   0.18320   0.19018   0.19096   0.19992

 Mulliken charges:
               1
     1  C   -0.322865
     2  C   -0.177279
     3  C   -0.178769
     4  C   -0.072175
     5  N   -0.570984
     6  C    0.825391
     7  O   -0.525838
     8  N   -0.563868
     9  C   -0.182287
    10  C    0.819849
    11  O   -0.510179
    12  N   -0.629171
    13  C    0.766198
    14  F   -0.259340
    15  F   -0.254078
    16  C    0.442368
    17  F   -0.264952
    18  O   -0.508846
    19  C    1.012071
    20  F   -0.245370
    21  F   -0.240998
    22  F   -0.249092
    23  C    0.800253
    24  F   -0.260702
    25  F   -0.244565
    26  F   -0.247497
    27  C    0.831775
    28  O   -0.514474
    29  H    0.105582
    30  H    0.105203
    31  H    0.106673
    32  H    0.107010
    33  H    0.095584
    34  H    0.112205
    35  H    0.115445
    36  H    0.154934
    37  H    0.144158
    38  H    0.155779
    39  H    0.160457
    40  H    0.162396
 Sum of Mulliken charges =   0.00000

 Dipole moment (field-independent basis, Debye):
    X=             -2.2001    Y=             -2.1372    Z=             -0.5664  Tot=              3.1191
 Quadrupole moment (field-independent basis, Debye-Ang):
   XX=           -159.4467   YY=           -157.0472   ZZ=           -154.3807
   XY=             -4.6445   XZ=             -2.2922   YZ=             -2.9378

 Normal termination of Gaussian 09 at Sun Mar  3 17:39:21 2024.
