 Gaussian 09, Revision D.01,
 Gaussian 09:  ES64L-G09RevD.01 24-Apr-2013

 ----------------------------------------------------------------------
 #p CAM-B3LYP/6-31G(d,p) SCRF=(PCM,Solvent=Generic,Read) NoSymm out=wfn
 ----------------------------------------------------------------------

 ----------------
 Title EHOPA1_neu
 ----------------
 Symbolic Z-matrix:
 Charge =  0 Multiplicity = 1

                          Input orientation:
 ---------------------------------------------------------------------
 Center     Atomic      Atomic             Coordinates (Angstroms)
 Number     Number       Type             X           Y           Z
 ---------------------------------------------------------------------
      1          6           0       -6.006625    3.028604    1.891316
      2          6           0       -5.795606    1.540682    1.651894
      3          6           0       -4.320300    1.220536    1.411125
      4          6           0       -4.016535   -0.278421    1.284665
      5          6           0       -4.130064   -0.919128   -0.119660
      6          6           0       -5.557908   -1.034606   -0.682755
      7          6           0       -6.513411   -1.814043    0.209039
      8          6           0       -3.226160   -0.236160   -1.168065
      9          8           0       -1.896817   -0.032064   -0.690364
     10          6           0       -1.046902   -1.171420   -0.803195
     11          6           0       -0.407408   -1.266732   -2.187046
     12          6           0        0.284871    0.022795   -2.626464
     13          7           0        1.360228    0.421008   -1.741803
     14          6           0        2.612217   -0.178761   -1.771425
     15          6           0        3.587709    0.388835   -0.724769
     16          9           0        2.912378    0.674949    0.431814
     17          9           0        4.092636    1.581382   -1.153121
     18          6           0        4.730348   -0.579104   -0.408081
     19          9           0        4.181426   -1.806645   -0.138630
     20          8           0        5.618055   -0.813603   -1.519425
     21          6           0        6.884886   -1.126104   -0.946934
     22          9           0        7.726121   -0.130461   -1.301870
     23          9           0        7.362073   -2.262625   -1.488754
     24          6           0        6.714536   -1.196150    0.559952
     25          9           0        6.296353   -2.442776    0.922217
     26          9           0        7.828608   -0.961572    1.271218
     27          6           0        5.602046   -0.210727    0.795552
     28          6           0        6.052522    1.239992    0.828200
     29          9           0        4.962809    2.029433    1.067746
     30          6           0        7.118296    1.492853    1.895158
     31          8           0        6.654086    1.443341    3.161508
     32          8           0        8.302184    1.717852    1.692913
     33          9           0        6.493457    1.617103   -0.401060
     34          9           0        4.960429   -0.496650    1.965658
     35          8           0        2.903713   -1.036225   -2.601047
     36          1           0       -5.445846    3.369192    2.767556
     37          1           0       -5.681754    3.614435    1.025559
     38          1           0       -7.066637    3.238072    2.064930
     39          1           0       -6.403960    1.240276    0.796345
     40          1           0       -6.160352    0.984651    2.522951
     41          1           0       -3.949333    1.776237    0.544335
     42          1           0       -3.753802    1.596337    2.273976
     43          1           0       -4.621277   -0.841657    2.004961
     44          1           0       -2.980342   -0.423136    1.620390
     45          1           0       -3.759392   -1.946037    0.004456
     46          1           0       -5.971916   -0.043579   -0.894795
     47          1           0       -5.510808   -1.552036   -1.650162
     48          1           0       -6.712756   -1.290840    1.147912
     49          1           0       -7.472603   -1.951688   -0.301291
     50          1           0       -6.111079   -2.804825    0.443398
     51          1           0       -3.213406   -0.809137   -2.102297
     52          1           0       -3.627099    0.751306   -1.419837
     53          1           0       -1.585105   -2.094197   -0.563095
     54          1           0       -0.263230   -1.058754   -0.046339
     55          1           0        0.304499   -2.100208   -2.190425
     56          1           0       -1.178082   -1.502988   -2.929568
     57          1           0        0.699517   -0.114766   -3.631326
     58          1           0       -0.424611    0.855280   -2.672803
     59          1           0        1.134291    1.042438   -0.969222
     60          1           0        7.430831    1.640241    3.729650
 ---------------------------------------------------------------------

 SCF Done:  E(RCAM-B3LYP) =  -2167.58259867     A.U. after   13 cycles

 Alpha  occ. eigenvalues --  -24.83901 -24.82393 -24.82376 -24.82338 -24.82312
 Alpha  occ. eigenvalues --  -24.82288 -24.82041 -24.81674 -24.81551 -24.81160
 Alpha  occ. eigenvalues --  -19.31127 -19.30247 -19.25187 -19.22131 -19.21880
 Alpha  occ. eigenvalues --  -14.45124 -10.52184 -10.49226 -10.48654 -10.47674
 Alpha  occ. eigenvalues --  -10.46634 -10.44318 -10.42488 -10.39843 -10.30555
 Alpha  occ. eigenvalues --  -10.30154 -10.29988 -10.26005 -10.25752 -10.25280
 Alpha  occ. eigenvalues --  -10.24588 -10.24472 -10.24459 -10.24441 -10.24069
 Alpha  occ. eigenvalues --   -1.40229  -1.38441  -1.37768  -1.37072  -1.35083
 Alpha  occ. eigenvalues --   -1.33355  -1.32273  -1.31458  -1.30854  -1.30754
 Alpha  occ. eigenvalues --   -1.22122  -1.19317  -1.13898  -1.12199  -1.10915
 Alpha  occ. eigenvalues --   -1.01597  -0.97264  -0.90635  -0.89924  -0.87571
 Alpha  occ. eigenvalues --   -0.86767  -0.86000  -0.82947  -0.81221  -0.79210
 Alpha  occ. eigenvalues --   -0.77356  -0.77232  -0.75191  -0.73649  -0.72495
 Alpha  occ. eigenvalues --   -0.71027  -0.70665  -0.69965  -0.69036  -0.68662
 Alpha  occ. eigenvalues --   -0.67441  -0.66455  -0.66126  -0.65693  -0.65596
 Alpha  occ. eigenvalues --   -0.64996  -0.64788  -0.64046  -0.63778  -0.63457
 Alpha  occ. eigenvalues --   -0.61850  -0.61151  -0.58250  -0.57682  -0.57482
 Alpha  occ. eigenvalues --   -0.56685  -0.56212  -0.55766  -0.55447  -0.55130
 Alpha  occ. eigenvalues --   -0.55073  -0.54670  -0.54203  -0.53731  -0.53443
 Alpha  occ. eigenvalues --   -0.52927  -0.52456  -0.52235  -0.52180  -0.52043
 Alpha  occ. eigenvalues --   -0.51910  -0.51351  -0.51278  -0.51038  -0.50565
 Alpha  occ. eigenvalues --   -0.50279  -0.49871  -0.49572  -0.49526  -0.48779
 Alpha  occ. eigenvalues --   -0.48537  -0.48229  -0.47632  -0.47367  -0.46712
 Alpha  occ. eigenvalues --   -0.45785  -0.45588  -0.45008  -0.44840  -0.43872
 Alpha  occ. eigenvalues --   -0.43446  -0.42975  -0.42565  -0.42278  -0.42019
 Alpha  occ. eigenvalues --   -0.41359  -0.40993  -0.40579  -0.40152  -0.39275
 Alpha  occ. eigenvalues --   -0.38261  -0.37693  -0.36995  -0.35930  -0.35567
 Alpha  occ. eigenvalues --   -0.34539  -0.32763  -0.31339
 Alpha virt. eigenvalues --    0.00163   0.02331   0.04745   0.08232   0.10825
 Alpha virt. eigenvalues --    0.11538   0.12420   0.13390   0.13939   0.14111
 Alpha virt. eigenvalues --    0.15024   0.15369   0.16255   0.16562   0.17569

 Mulliken charges:
               1
     1  C   -0.320075
     2  C   -0.175676
     3  C   -0.170991
     4  C   -0.180413
     5  C   -0.079093
     6  C   -0.179590
     7  C   -0.322005
     8  C    0.057544
     9  O   -0.511108
    10  C    0.045034
    11  C   -0.204879
    12  C   -0.047443
    13  N   -0.548108
    14  C    0.573280
    15  C    0.545883
    16  F   -0.287671
    17  F   -0.267950
    18  C    0.477524
    19  F   -0.279139
    20  O   -0.488859
    21  C    0.773043
    22  F   -0.244544
    23  F   -0.243161
    24  C    0.518119
    25  F   -0.267669
    26  F   -0.250607
    27  C    0.175471
    28  C    0.615663
    29  F   -0.273776
    30  C    0.529704
    31  O   -0.472309
    32  O   -0.444799
    33  F   -0.262936
    34  F   -0.284678
    35  O   -0.500234
    36  H    0.102354
    37  H    0.101318
    38  H    0.098536
    39  H    0.096355
    40  H    0.092823
    41  H    0.092941
    42  H    0.090590
    43  H    0.089168
    44  H    0.097457
    45  H    0.083982
    46  H    0.095336
    47  H    0.091238
    48  H    0.110173
    49  H    0.101647
    50  H    0.103236
    51  H    0.087614
    52  H    0.101930
    53  H    0.099617
    54  H    0.105425
    55  H    0.124799
    56  H    0.106709
    57  H    0.137804
    58  H    0.130263
    59  H    0.293137
    60  H    0.361997
 Sum of Mulliken charges =   0.00000

 Dipole moment (field-independent basis, Debye):
    X=             -4.2329    Y=              0.8301    Z=              2.4192  Tot=              4.9456
 Quadrupole moment (field-independent basis, Debye-Ang):
   XX=           -213.5660   YY=           -201.5959   ZZ=           -194.0333
   XY=              7.5288   XZ=             28.1390   YZ=              0.2869

 Normal termination of Gaussian 09 at Mon Feb  3 21:46:00 2025.
