 Gaussian 09, Revision D.01,
 Gaussian 09:  ES64L-G09RevD.01 24-Apr-2013

 ----------------------------------------------------------------------
 #p CAM-B3LYP/6-31G(d,p) SCRF=(PCM,Solvent=Generic,Read) NoSymm out=wfn
 ----------------------------------------------------------------------

 ------------------
 Title A891690742_0
 ------------------
 Symbolic Z-matrix:
 Charge =  0 Multiplicity = 1

                          Input orientation:
 ---------------------------------------------------------------------
 Center     Atomic      Atomic             Coordinates (Angstroms)
 Number     Number       Type             X           Y           Z
 ---------------------------------------------------------------------
      1          6           0       -4.886992   -2.450705   -1.070295
      2          6           0       -4.298865   -1.992270    0.254574
      3          6           0       -2.967383   -1.269951    0.055679
      4          6           0       -2.378988   -0.810218    1.393585
      5          7           0       -1.100212   -0.121367    1.215727
      6          6           0       -1.126029    1.227057    0.925479
      7          8           0       -2.180086    1.860614    0.853196
      8          7           0        0.099062    1.813668    0.683505
      9          6           0        0.121530    3.225640    0.299302
     10          6           0       -0.065075    3.404656   -1.209552
     11          6           0       -0.038196    4.872497   -1.602499
     12          6           0        1.281461    1.106867    0.644371
     13          8           0        2.322305    1.617168    0.233703
     14          7           0        1.232345   -0.201427    1.050745
     15          6           0        2.479645   -0.948709    1.041985
     16          9           0        3.387643   -0.187769    1.731401
     17          9           0        2.373888   -2.060962    1.829213
     18          6           0        3.113155   -1.368606   -0.320483
     19          9           0        3.414936   -0.282077   -1.089077
     20          8           0        4.321548   -2.146082   -0.241437
     21          6           0        5.337983   -1.535322    0.507266
     22          9           0        6.516593   -2.074880    0.140566
     23          9           0        5.141728   -1.793706    1.811189
     24          9           0        5.387356   -0.211957    0.297408
     25          6           0        2.097838   -2.203863   -1.091908
     26          9           0        2.595062   -2.578313   -2.299972
     27          9           0        1.760463   -3.339998   -0.448080
     28          9           0        0.963030   -1.511071   -1.351052
     29          6           0        0.049226   -0.880221    1.172659
     30          8           0        0.007510   -2.109344    1.193815
     31          1           0       -5.071470   -1.599295   -1.733176
     32          1           0       -5.838903   -2.964868   -0.904780
     33          1           0       -4.210733   -3.143804   -1.580821
     34          1           0       -5.012626   -1.326704    0.753786
     35          1           0       -4.156596   -2.862924    0.905246
     36          1           0       -2.259057   -1.935211   -0.453224
     37          1           0       -3.111580   -0.405112   -0.603497
     38          1           0       -2.233198   -1.673906    2.053488
     39          1           0       -3.082892   -0.138477    1.899288
     40          1           0        1.074104    3.669582    0.612620
     41          1           0       -0.670010    3.759423    0.838778
     42          1           0        0.723781    2.870767   -1.752315
     43          1           0       -1.017526    2.963339   -1.525811
     44          1           0       -0.840053    5.426570   -1.104188
     45          1           0       -0.173265    4.978135   -2.683457
     46          1           0        0.917545    5.333136   -1.332949
 ---------------------------------------------------------------------

 SCF Done:  E(RCAM-B3LYP) =  -1906.27844216     A.U. after   13 cycles

 Alpha  occ. eigenvalues --  -24.84018 -24.83250 -24.83050 -24.82877 -24.82684
 Alpha  occ. eigenvalues --  -24.82595 -24.82513 -24.82452 -24.81856 -19.32665
 Alpha  occ. eigenvalues --  -19.23087 -19.22867 -19.22585 -14.52264 -14.49420
 Alpha  occ. eigenvalues --  -14.49377 -10.59125 -10.55149 -10.53147 -10.48720
 Alpha  occ. eigenvalues --  -10.44901 -10.44827 -10.43763 -10.30938 -10.30884
 Alpha  occ. eigenvalues --  -10.26202 -10.25942 -10.25527 -10.25028 -10.24479
 Alpha  occ. eigenvalues --   -1.42649  -1.41678  -1.38507  -1.35279  -1.33039
 Alpha  occ. eigenvalues --   -1.32932  -1.32616  -1.31838  -1.31030  -1.21656
 Alpha  occ. eigenvalues --   -1.20044  -1.16620  -1.16292  -1.08639  -1.06364
 Alpha  occ. eigenvalues --   -1.04826  -0.93299  -0.89222  -0.87900  -0.84811
 Alpha  occ. eigenvalues --   -0.82711  -0.80758  -0.80534  -0.78438  -0.76903
 Alpha  occ. eigenvalues --   -0.75036  -0.73513  -0.72476  -0.71845  -0.71255
 Alpha  occ. eigenvalues --   -0.70163  -0.69096  -0.68465  -0.68013  -0.67520
 Alpha  occ. eigenvalues --   -0.67251  -0.66330  -0.65400  -0.64040  -0.61388
 Alpha  occ. eigenvalues --   -0.59852  -0.58877  -0.56947  -0.56571  -0.56305
 Alpha  occ. eigenvalues --   -0.56055  -0.55700  -0.55318  -0.55120  -0.54634
 Alpha  occ. eigenvalues --   -0.54458  -0.54158  -0.53652  -0.53606  -0.52906
 Alpha  occ. eigenvalues --   -0.52670  -0.52585  -0.51975  -0.51849  -0.51517
 Alpha  occ. eigenvalues --   -0.51155  -0.50565  -0.50245  -0.49937  -0.49410
 Alpha  occ. eigenvalues --   -0.48919  -0.48682  -0.48634  -0.48198  -0.47894
 Alpha  occ. eigenvalues --   -0.45891  -0.45500  -0.45300  -0.44339  -0.43681
 Alpha  occ. eigenvalues --   -0.42329  -0.41883  -0.41566  -0.40334  -0.39991
 Alpha  occ. eigenvalues --   -0.39261  -0.38826  -0.38401  -0.37664  -0.35590
 Alpha  occ. eigenvalues --   -0.34949  -0.34501
 Alpha virt. eigenvalues --    0.01737   0.02510   0.06464   0.07958   0.11799
 Alpha virt. eigenvalues --    0.13510   0.14500   0.15633   0.16248   0.16557
 Alpha virt. eigenvalues --    0.17312   0.18092   0.18330   0.18842   0.19823

 Mulliken charges:
               1
     1  C   -0.322788
     2  C   -0.183983
     3  C   -0.180369
     4  C   -0.057500
     5  N   -0.575210
     6  C    0.825838
     7  O   -0.527451
     8  N   -0.575475
     9  C   -0.050468
    10  C   -0.186722
    11  C   -0.328249
    12  C    0.827292
    13  O   -0.509370
    14  N   -0.630467
    15  C    0.760958
    16  F   -0.270353
    17  F   -0.250022
    18  C    0.435395
    19  F   -0.254362
    20  O   -0.517813
    21  C    0.999081
    22  F   -0.242597
    23  F   -0.245485
    24  F   -0.240740
    25  C    0.807578
    26  F   -0.255103
    27  F   -0.235300
    28  F   -0.253172
    29  C    0.824009
    30  O   -0.513419
    31  H    0.107697
    32  H    0.105415
    33  H    0.108569
    34  H    0.103802
    35  H    0.104613
    36  H    0.115204
    37  H    0.112682
    38  H    0.146792
    39  H    0.148187
    40  H    0.147328
    41  H    0.148457
    42  H    0.118484
    43  H    0.116665
    44  H    0.113361
    45  H    0.114940
    46  H    0.114071
 Sum of Mulliken charges =   0.00000

 Dipole moment (field-independent basis, Debye):
    X=             -2.7602    Y=              1.8217    Z=              0.2878  Tot=              3.3197
 Quadrupole moment (field-independent basis, Debye-Ang):
   XX=           -176.3810   YY=           -169.6541   ZZ=           -164.9475
   XY=              6.1154   XZ=             -0.6770   YZ=              0.2477

 Normal termination of Gaussian 09 at Sun Mar  3 18:03:54 2024.
