 Gaussian 09, Revision D.01,
 Gaussian 09:  ES64L-G09RevD.01 24-Apr-2013

 ----------------------------------------------------------------------
 #p CAM-B3LYP/6-31G(d,p) SCRF=(PCM,Solvent=Generic,Read) NoSymm out=wfn
 ----------------------------------------------------------------------

 -------------------
 Title A891690742_p1
 -------------------
 Symbolic Z-matrix:
 Charge =  1 Multiplicity = 2

                          Input orientation:
 ---------------------------------------------------------------------
 Center     Atomic      Atomic             Coordinates (Angstroms)
 Number     Number       Type             X           Y           Z
 ---------------------------------------------------------------------
      1          6           0       -4.886992   -2.450705   -1.070295
      2          6           0       -4.298865   -1.992270    0.254574
      3          6           0       -2.967383   -1.269951    0.055679
      4          6           0       -2.378988   -0.810218    1.393585
      5          7           0       -1.100212   -0.121367    1.215727
      6          6           0       -1.126029    1.227057    0.925479
      7          8           0       -2.180086    1.860614    0.853196
      8          7           0        0.099062    1.813668    0.683505
      9          6           0        0.121530    3.225640    0.299302
     10          6           0       -0.065075    3.404656   -1.209552
     11          6           0       -0.038196    4.872497   -1.602499
     12          6           0        1.281461    1.106867    0.644371
     13          8           0        2.322305    1.617168    0.233703
     14          7           0        1.232345   -0.201427    1.050745
     15          6           0        2.479645   -0.948709    1.041985
     16          9           0        3.387643   -0.187769    1.731401
     17          9           0        2.373888   -2.060962    1.829213
     18          6           0        3.113155   -1.368606   -0.320483
     19          9           0        3.414936   -0.282077   -1.089077
     20          8           0        4.321548   -2.146082   -0.241437
     21          6           0        5.337983   -1.535322    0.507266
     22          9           0        6.516593   -2.074880    0.140566
     23          9           0        5.141728   -1.793706    1.811189
     24          9           0        5.387356   -0.211957    0.297408
     25          6           0        2.097838   -2.203863   -1.091908
     26          9           0        2.595062   -2.578313   -2.299972
     27          9           0        1.760463   -3.339998   -0.448080
     28          9           0        0.963030   -1.511071   -1.351052
     29          6           0        0.049226   -0.880221    1.172659
     30          8           0        0.007510   -2.109344    1.193815
     31          1           0       -5.071470   -1.599295   -1.733176
     32          1           0       -5.838903   -2.964868   -0.904780
     33          1           0       -4.210733   -3.143804   -1.580821
     34          1           0       -5.012626   -1.326704    0.753786
     35          1           0       -4.156596   -2.862924    0.905246
     36          1           0       -2.259057   -1.935211   -0.453224
     37          1           0       -3.111580   -0.405112   -0.603497
     38          1           0       -2.233198   -1.673906    2.053488
     39          1           0       -3.082892   -0.138477    1.899288
     40          1           0        1.074104    3.669582    0.612620
     41          1           0       -0.670010    3.759423    0.838778
     42          1           0        0.723781    2.870767   -1.752315
     43          1           0       -1.017526    2.963339   -1.525811
     44          1           0       -0.840053    5.426570   -1.104188
     45          1           0       -0.173265    4.978135   -2.683457
     46          1           0        0.917545    5.333136   -1.332949
 ---------------------------------------------------------------------

 SCF Done:  E(UCAM-B3LYP) =  -1905.96379436     A.U. after   40 cycles

 Alpha  occ. eigenvalues --  -24.87576 -24.86907 -24.85993 -24.85835 -24.85537
 Alpha  occ. eigenvalues --  -24.85313 -24.85107 -24.84815 -24.84725 -19.35259
 Alpha  occ. eigenvalues --  -19.34762 -19.30661 -19.30411 -14.65054 -14.59068
 Alpha  occ. eigenvalues --  -14.58581 -10.61205 -10.58224 -10.57598 -10.54091
 Alpha  occ. eigenvalues --  -10.52073 -10.52037 -10.51586 -10.39643 -10.36156
 Alpha  occ. eigenvalues --  -10.33311 -10.30384 -10.30120 -10.27859 -10.27794
 Alpha  occ. eigenvalues --   -1.45078  -1.44508  -1.42531  -1.38319  -1.36273
 Alpha  occ. eigenvalues --   -1.35279  -1.35088  -1.34566  -1.34328  -1.31041
 Alpha  occ. eigenvalues --   -1.25742  -1.24343  -1.22608  -1.17862  -1.15299
 Alpha  occ. eigenvalues --   -1.13568  -0.97507  -0.96069  -0.93243  -0.90665
 Alpha  occ. eigenvalues --   -0.89369  -0.87283  -0.84805  -0.83138  -0.82348
 Alpha  occ. eigenvalues --   -0.81314  -0.79454  -0.78254  -0.76144  -0.74769
 Alpha  occ. eigenvalues --   -0.73340  -0.72681  -0.72422  -0.71462  -0.71382
 Alpha  occ. eigenvalues --   -0.70915  -0.70270  -0.69329  -0.68476  -0.67861
 Alpha  occ. eigenvalues --   -0.66663  -0.64147  -0.63422  -0.62616  -0.61728
 Alpha  occ. eigenvalues --   -0.61648  -0.61470  -0.60235  -0.59841  -0.59423
 Alpha  occ. eigenvalues --   -0.59181  -0.59055  -0.58353  -0.57668  -0.57088
 Alpha  occ. eigenvalues --   -0.57072  -0.56563  -0.55759  -0.55477  -0.54941
 Alpha  occ. eigenvalues --   -0.54681  -0.54460  -0.54121  -0.53645  -0.53154
 Alpha  occ. eigenvalues --   -0.53117  -0.52843  -0.52279  -0.51444  -0.51334
 Alpha  occ. eigenvalues --   -0.51205  -0.49686  -0.49393  -0.49097  -0.48320
 Alpha  occ. eigenvalues --   -0.47762  -0.47481  -0.47070  -0.45920  -0.45520
 Alpha  occ. eigenvalues --   -0.45245  -0.44769  -0.44201  -0.43220  -0.43156
 Alpha  occ. eigenvalues --   -0.42559  -0.42140
 Alpha virt. eigenvalues --   -0.06672  -0.05301   0.02366   0.03180   0.04922
 Alpha virt. eigenvalues --    0.08008   0.10407   0.10776   0.10846   0.12012
 Alpha virt. eigenvalues --    0.12089   0.13434   0.13914   0.14395   0.15530

  Beta  occ. eigenvalues --  -24.87574 -24.86898 -24.85992 -24.85834 -24.85536
  Beta  occ. eigenvalues --  -24.85313 -24.85107 -24.84815 -24.84725 -19.35260
  Beta  occ. eigenvalues --  -19.34087 -19.30644 -19.30212 -14.63940 -14.59119
  Beta  occ. eigenvalues --  -14.58218 -10.61205 -10.58224 -10.57598 -10.54307
  Beta  occ. eigenvalues --  -10.52179 -10.52039 -10.51658 -10.39591 -10.36145
  Beta  occ. eigenvalues --  -10.33137 -10.30330 -10.30091 -10.27828 -10.27788
  Beta  occ. eigenvalues --   -1.45076  -1.44507  -1.42522  -1.38317  -1.36269
  Beta  occ. eigenvalues --   -1.35267  -1.35087  -1.34565  -1.34326  -1.30195
  Beta  occ. eigenvalues --   -1.25000  -1.23952  -1.22608  -1.16644  -1.14601
  Beta  occ. eigenvalues --   -1.12868  -0.97337  -0.95674  -0.93004  -0.90499
  Beta  occ. eigenvalues --   -0.89152  -0.87061  -0.84594  -0.83113  -0.82058
  Beta  occ. eigenvalues --   -0.81130  -0.79294  -0.77928  -0.76076  -0.74681
  Beta  occ. eigenvalues --   -0.73246  -0.72378  -0.71904  -0.71382  -0.71093
  Beta  occ. eigenvalues --   -0.70894  -0.70255  -0.68898  -0.67962  -0.67628
  Beta  occ. eigenvalues --   -0.65981  -0.63497  -0.62818  -0.62388  -0.61521
  Beta  occ. eigenvalues --   -0.60777  -0.60257  -0.60063  -0.59760  -0.59224
  Beta  occ. eigenvalues --   -0.59034  -0.58717  -0.58093  -0.57624  -0.57058
  Beta  occ. eigenvalues --   -0.56942  -0.56474  -0.55715  -0.55049  -0.54715
  Beta  occ. eigenvalues --   -0.54426  -0.54040  -0.53984  -0.53387  -0.53118
  Beta  occ. eigenvalues --   -0.53056  -0.52339  -0.52219  -0.51423  -0.51207
  Beta  occ. eigenvalues --   -0.50786  -0.49564  -0.48542  -0.48097  -0.47753
  Beta  occ. eigenvalues --   -0.47550  -0.46922  -0.45600  -0.45364  -0.45130
  Beta  occ. eigenvalues --   -0.44335  -0.43845  -0.43195  -0.43063  -0.42169
  Beta  occ. eigenvalues --   -0.40287
  Beta virt. eigenvalues --   -0.28298  -0.05762  -0.04347   0.02394   0.03730
  Beta virt. eigenvalues --    0.05401   0.08348   0.10506   0.10883   0.11241
  Beta virt. eigenvalues --    0.12105   0.12133   0.13588   0.14049   0.14438

 Mulliken charges and spin densities:
               1          2
     1  C   -0.329850   0.014332
     2  C   -0.193391   0.016479
     3  C   -0.204073   0.092030
     4  C   -0.100101   0.020716
     5  N   -0.457352   0.503857
     6  C    0.857248  -0.063225
     7  O   -0.451561   0.011394
     8  N   -0.543240   0.166023
     9  C   -0.077096   0.002299
    10  C   -0.198582   0.026370
    11  C   -0.329437   0.004167
    12  C    0.864417  -0.041119
    13  O   -0.436279   0.078423
    14  N   -0.634621  -0.014472
    15  C    0.761329  -0.000515
    16  F   -0.256557   0.000308
    17  F   -0.240203   0.002005
    18  C    0.442060  -0.000828
    19  F   -0.248758   0.000180
    20  O   -0.507677  -0.000116
    21  C    1.003518   0.000005
    22  F   -0.236972  -0.000001
    23  F   -0.243758   0.000003
    24  F   -0.239636  -0.000002
    25  C    0.808461  -0.000084
    26  F   -0.245264   0.000010
    27  F   -0.232216   0.000236
    28  F   -0.257771   0.000449
    29  C    0.871603  -0.123078
    30  O   -0.376733   0.265532
    31  H    0.124246  -0.000565
    32  H    0.135331   0.008157
    33  H    0.124520  -0.000592
    34  H    0.132770  -0.000350
    35  H    0.132361  -0.000743
    36  H    0.157295  -0.001686
    37  H    0.158793  -0.003322
    38  H    0.216478   0.011211
    39  H    0.222205   0.016172
    40  H    0.185295   0.002943
    41  H    0.184315   0.005252
    42  H    0.138281   0.000313
    43  H    0.133182  -0.000971
    44  H    0.125960   0.000209
    45  H    0.133680   0.002803
    46  H    0.127779  -0.000208
 Sum of Mulliken charges =   1.00000   1.00000

 Dipole moment (field-independent basis, Debye):
    X=             -6.5744    Y=              1.8056    Z=              3.5546  Tot=              7.6888
 Quadrupole moment (field-independent basis, Debye-Ang):
   XX=           -146.2858   YY=           -145.9848   ZZ=           -154.0205
   XY=             11.5744   XZ=             -3.1452   YZ=             -2.2541

 Normal termination of Gaussian 09 at Sun Mar  3 18:06:12 2024.
