 Gaussian 09, Revision D.01,
 Gaussian 09:  ES64L-G09RevD.01 24-Apr-2013

 ----------------------------------------------------------------------
 #p CAM-B3LYP/6-31G(d,p) SCRF=(PCM,Solvent=Generic,Read) NoSymm out=wfn
 ----------------------------------------------------------------------

 ------------------
 Title A458445980_0
 ------------------
 Symbolic Z-matrix:
 Charge =  0 Multiplicity = 1

                          Input orientation:
 ---------------------------------------------------------------------
 Center     Atomic      Atomic             Coordinates (Angstroms)
 Number     Number       Type             X           Y           Z
 ---------------------------------------------------------------------
      1          7           0       -2.190373    4.520833    1.541230
      2          6           0       -1.092222    4.165273    1.663745
      3          6           0        0.295109    3.686648    1.793516
      4          7           0        0.462660    2.386444    1.144657
      5          6           0        0.717791    2.354760   -0.209742
      6          8           0        1.063635    3.373772   -0.799705
      7          7           0        0.564650    1.128195   -0.811980
      8          6           0        0.702919    1.046921   -2.265764
      9          9           0        2.021003    0.823048   -2.528620
     10          9           0        0.437922    2.267769   -2.825082
     11          6           0       -0.183046    0.042888   -3.078700
     12          9           0        0.097757   -1.259370   -2.821432
     13          8           0       -0.119326    0.175902   -4.509853
     14          6           0        1.187321    0.075836   -5.013142
     15          9           0        1.119664   -0.257059   -6.315538
     16          9           0        1.792545    1.270462   -4.907463
     17          9           0        1.899729   -0.856978   -4.363246
     18          6           0       -1.624381    0.326399   -2.656082
     19          9           0       -2.504624   -0.482731   -3.291430
     20          9           0       -1.812368    0.143491   -1.325839
     21          9           0       -1.992545    1.599900   -2.924453
     22          6           0        0.754747   -0.018219   -0.081969
     23          8           0        1.012345   -1.084424   -0.627025
     24          7           0        0.648275    0.077259    1.279755
     25          6           0        0.644725   -1.137452    2.087771
     26          9           0        1.517872   -2.042447    1.574063
     27          9           0        1.215522   -0.817674    3.294927
     28          6           0       -0.742405   -1.785596    2.367004
     29          9           0       -1.684875   -0.777571    2.375262
     30          8           0       -0.871589   -2.342244    3.685236
     31          6           0       -0.189939   -3.557094    3.864101
     32          9           0       -0.863355   -4.543211    3.253118
     33          9           0        1.050961   -3.480918    3.366864
     34          9           0       -0.118419   -3.825654    5.178950
     35          6           0       -1.121281   -2.717696    1.215552
     36          9           0       -2.309663   -3.322633    1.460882
     37          9           0       -0.216092   -3.693636    1.008105
     38          9           0       -1.272513   -2.037941    0.056860
     39          6           0        0.293360    1.249736    1.898667
     40          8           0       -0.135071    1.300636    3.047852
     41          1           0        0.980164    4.415010    1.345790
     42          1           0        0.563410    3.609367    2.853158
 ---------------------------------------------------------------------

 SCF Done:  E(RCAM-B3LYP) =  -2887.98950323     A.U. after   14 cycles

 Alpha  occ. eigenvalues --  -24.84818 -24.84586 -24.84291 -24.84033 -24.83953
 Alpha  occ. eigenvalues --  -24.83814 -24.83775 -24.83761 -24.83718 -24.83677
 Alpha  occ. eigenvalues --  -24.83631 -24.83532 -24.83423 -24.83276 -24.83188
 Alpha  occ. eigenvalues --  -24.83099 -24.82932 -24.82799 -19.33575 -19.33278
 Alpha  occ. eigenvalues --  -19.25725 -19.25624 -19.25603 -14.54522 -14.54476
 Alpha  occ. eigenvalues --  -14.53042 -14.43752 -10.60113 -10.59610 -10.55950
 Alpha  occ. eigenvalues --  -10.55840 -10.54488 -10.54239 -10.49730 -10.49662
 Alpha  occ. eigenvalues --  -10.48079 -10.47551 -10.47355 -10.38243 -10.33202
 Alpha  occ. eigenvalues --   -1.43970  -1.43213  -1.42544  -1.42337  -1.39698
 Alpha  occ. eigenvalues --   -1.39629  -1.35999  -1.35992  -1.34449  -1.33986
 Alpha  occ. eigenvalues --   -1.33702  -1.33504  -1.33288  -1.33157  -1.32915
 Alpha  occ. eigenvalues --   -1.32708  -1.32416  -1.32111  -1.25066  -1.20992
 Alpha  occ. eigenvalues --   -1.20620  -1.19810  -1.19427  -1.11689  -1.10140
 Alpha  occ. eigenvalues --   -1.08991  -1.00843  -0.94618  -0.93655  -0.89860
 Alpha  occ. eigenvalues --   -0.86590  -0.85408  -0.82869  -0.81246  -0.81006
 Alpha  occ. eigenvalues --   -0.80311  -0.77502  -0.76774  -0.75842  -0.74479
 Alpha  occ. eigenvalues --   -0.73746  -0.72613  -0.72226  -0.71840  -0.70927
 Alpha  occ. eigenvalues --   -0.70692  -0.70256  -0.69739  -0.69326  -0.68849
 Alpha  occ. eigenvalues --   -0.68531  -0.68110  -0.67954  -0.66757  -0.66152
 Alpha  occ. eigenvalues --   -0.65431  -0.65155  -0.64873  -0.63004  -0.61264
 Alpha  occ. eigenvalues --   -0.60358  -0.59489  -0.58386  -0.58161  -0.57756
 Alpha  occ. eigenvalues --   -0.57568  -0.57462  -0.57255  -0.57113  -0.56795
 Alpha  occ. eigenvalues --   -0.56545  -0.56442  -0.55874  -0.55764  -0.55322
 Alpha  occ. eigenvalues --   -0.55290  -0.55203  -0.54928  -0.54756  -0.54317
 Alpha  occ. eigenvalues --   -0.54192  -0.53661  -0.53468  -0.53388  -0.52835
 Alpha  occ. eigenvalues --   -0.52702  -0.52622  -0.52404  -0.52202  -0.51836
 Alpha  occ. eigenvalues --   -0.51567  -0.51276  -0.51171  -0.51044  -0.50908
 Alpha  occ. eigenvalues --   -0.50588  -0.50157  -0.50106  -0.49649  -0.49535
 Alpha  occ. eigenvalues --   -0.49157  -0.48902  -0.48199  -0.45875  -0.45685
 Alpha  occ. eigenvalues --   -0.44964  -0.44474  -0.42979  -0.41891  -0.41211
 Alpha  occ. eigenvalues --   -0.40981  -0.40408  -0.39836  -0.39169  -0.37279
 Alpha virt. eigenvalues --   -0.01640  -0.00633   0.03553   0.05233   0.05717
 Alpha virt. eigenvalues --    0.05969   0.06893   0.07456   0.09872   0.12437
 Alpha virt. eigenvalues --    0.13818   0.14280   0.15446   0.17636   0.17972

 Mulliken charges:
               1
     1  N   -0.431858
     2  C    0.348017
     3  C   -0.117399
     4  N   -0.587931
     5  C    0.826795
     6  O   -0.463975
     7  N   -0.643757
     8  C    0.771079
     9  F   -0.258037
    10  F   -0.251455
    11  C    0.413921
    12  F   -0.240466
    13  O   -0.511758
    14  C    0.996414
    15  F   -0.238309
    16  F   -0.243000
    17  F   -0.240876
    18  C    0.806528
    19  F   -0.244684
    20  F   -0.250862
    21  F   -0.239211
    22  C    0.837708
    23  O   -0.470512
    24  N   -0.644120
    25  C    0.765859
    26  F   -0.241310
    27  F   -0.271304
    28  C    0.435275
    29  F   -0.271289
    30  O   -0.492926
    31  C    0.980112
    32  F   -0.239686
    33  F   -0.238139
    34  F   -0.234204
    35  C    0.814380
    36  F   -0.254349
    37  F   -0.241453
    38  F   -0.241862
    39  C    0.849740
    40  O   -0.479406
    41  H    0.221083
    42  H    0.217228
 Sum of Mulliken charges =   0.00000

 Dipole moment (field-independent basis, Debye):
    X=              3.2630    Y=             -0.1457    Z=              1.2140  Tot=              3.4846
 Quadrupole moment (field-independent basis, Debye-Ang):
   XX=           -218.0871   YY=           -218.3297   ZZ=           -217.0391
   XY=             15.1456   XZ=              9.3213   YZ=              4.1603

 Normal termination of Gaussian 09 at Tue Mar  5 20:54:35 2024.
