 Gaussian 09, Revision D.01,
 Gaussian 09:  ES64L-G09RevD.01 24-Apr-2013

 ----------------------------------------------------------------------
 #p CAM-B3LYP/6-31G(d,p) SCRF=(PCM,Solvent=Generic,Read) NoSymm out=wfn
 ----------------------------------------------------------------------

 -------------------
 Title A458445980_p1
 -------------------
 Symbolic Z-matrix:
 Charge =  1 Multiplicity = 2

                          Input orientation:
 ---------------------------------------------------------------------
 Center     Atomic      Atomic             Coordinates (Angstroms)
 Number     Number       Type             X           Y           Z
 ---------------------------------------------------------------------
      1          7           0       -0.224367   -1.825042   -4.256293
      2          6           0       -0.024011   -2.426651   -3.284122
      3          6           0        0.226933   -3.163135   -2.032221
      4          7           0        0.246591   -2.262025   -0.878156
      5          6           0        1.430459   -1.632653   -0.570681
      6          8           0        2.440415   -1.825536   -1.241703
      7          7           0        1.398149   -0.746317    0.472769
      8          6           0        2.612831   -0.020084    0.828798
      9          9           0        2.603412    0.079666    2.194945
     10          9           0        3.708285   -0.802111    0.596744
     11          6           0        2.877736    1.395297    0.225518
     12          9           0        1.905878    2.280691    0.588693
     13          8           0        4.128749    2.009193    0.579840
     14          6           0        4.335823    2.108725    1.963546
     15          9           0        3.208314    2.431090    2.613621
     16          9           0        4.816720    0.940065    2.420577
     17          9           0        5.255921    3.065469    2.188686
     18          6           0        2.847264    1.280962   -1.293480
     19          9           0        3.801726    0.455261   -1.768816
     20          9           0        3.044336    2.487505   -1.881323
     21          9           0        1.646369    0.831584   -1.733329
     22          6           0        0.213368   -0.298386    1.003172
     23          8           0        0.152238    0.756169    1.625657
     24          7           0       -0.897968   -1.067268    0.765241
     25          6           0       -2.158135   -0.636089    1.363948
     26          9           0       -2.981451   -1.718657    1.472608
     27          9           0       -1.916157   -0.295387    2.661640
     28          6           0       -2.888794    0.515188    0.624061
     29          9           0       -2.109370    1.634969    0.658937
     30          8           0       -3.009586    0.186731   -0.764593
     31          6           0       -3.874243    1.044782   -1.463307
     32          9           0       -3.641686    2.326358   -1.142561
     33          9           0       -3.665824    0.880837   -2.781322
     34          9           0       -5.145111    0.717776   -1.181253
     35          6           0       -4.183767    0.749742    1.415415
     36          9           0       -3.963193    0.972946    2.729114
     37          9           0       -4.858490    1.831561    0.957833
     38          9           0       -5.027544   -0.302359    1.321018
     39          6           0       -0.956149   -1.942034   -0.288971
     40          8           0       -2.011117   -2.399680   -0.722272
     41          1           0       -0.547772   -3.924928   -1.888457
     42          1           0        1.183219   -3.694226   -2.099519
 ---------------------------------------------------------------------

 SCF Done:  E(UCAM-B3LYP) =  -2887.65236782     A.U. after   65 cycles

 Alpha  occ. eigenvalues --  -24.89245 -24.89238 -24.88625 -24.88578 -24.87886
 Alpha  occ. eigenvalues --  -24.87110 -24.87076 -24.86899 -24.86368 -24.86183
 Alpha  occ. eigenvalues --  -24.86178 -24.86050 -24.86031 -24.85985 -24.85932
 Alpha  occ. eigenvalues --  -24.85483 -24.85446 -24.85428 -19.41346 -19.40081
 Alpha  occ. eigenvalues --  -19.37214 -19.36274 -19.35950 -14.62924 -14.62907
 Alpha  occ. eigenvalues --  -14.62833 -14.47952 -10.62639 -10.61938 -10.59776
 Alpha  occ. eigenvalues --  -10.59683 -10.59225 -10.58616 -10.57931 -10.57511
 Alpha  occ. eigenvalues --  -10.56361 -10.53541 -10.53411 -10.43876 -10.37328
 Alpha  occ. eigenvalues --   -1.46210  -1.46179  -1.45406  -1.45384  -1.44418
 Alpha  occ. eigenvalues --   -1.44099  -1.39894  -1.39655  -1.37832  -1.37405
 Alpha  occ. eigenvalues --   -1.37211  -1.36255  -1.35983  -1.35815  -1.35561
 Alpha  occ. eigenvalues --   -1.35325  -1.35108  -1.34992  -1.34883  -1.32038
 Alpha  occ. eigenvalues --   -1.29789  -1.24626  -1.23631  -1.22172  -1.18839
 Alpha  occ. eigenvalues --   -1.18018  -1.05010  -0.99351  -0.98198  -0.96065
 Alpha  occ. eigenvalues --   -0.93164  -0.92955  -0.87766  -0.86524  -0.85978
 Alpha  occ. eigenvalues --   -0.85149  -0.84027  -0.81867  -0.80166  -0.78245
 Alpha  occ. eigenvalues --   -0.77034  -0.76446  -0.76120  -0.74852  -0.74336
 Alpha  occ. eigenvalues --   -0.73884  -0.73335  -0.73123  -0.72414  -0.72240
 Alpha  occ. eigenvalues --   -0.71950  -0.71719  -0.71435  -0.70893  -0.70553
 Alpha  occ. eigenvalues --   -0.70175  -0.69984  -0.69571  -0.69347  -0.68451
 Alpha  occ. eigenvalues --   -0.67527  -0.66785  -0.65070  -0.64621  -0.63715
 Alpha  occ. eigenvalues --   -0.63457  -0.62400  -0.61952  -0.61516  -0.60741
 Alpha  occ. eigenvalues --   -0.60641  -0.60486  -0.60128  -0.60011  -0.59676
 Alpha  occ. eigenvalues --   -0.59455  -0.59166  -0.59005  -0.58483  -0.58202
 Alpha  occ. eigenvalues --   -0.57880  -0.57822  -0.57214  -0.56988  -0.56793
 Alpha  occ. eigenvalues --   -0.56477  -0.56028  -0.55911  -0.55581  -0.55220
 Alpha  occ. eigenvalues --   -0.55164  -0.54868  -0.54620  -0.54251  -0.54041
 Alpha  occ. eigenvalues --   -0.53924  -0.53676  -0.53511  -0.53283  -0.52814
 Alpha  occ. eigenvalues --   -0.52469  -0.52417  -0.52083  -0.51725  -0.51542
 Alpha  occ. eigenvalues --   -0.50787  -0.50082  -0.49615  -0.49022  -0.48659
 Alpha  occ. eigenvalues --   -0.48140  -0.47551  -0.47394  -0.46419  -0.45557
 Alpha virt. eigenvalues --   -0.10677  -0.09052  -0.01446  -0.00066   0.00565
 Alpha virt. eigenvalues --    0.01026   0.02703   0.02802   0.04671   0.07182
 Alpha virt. eigenvalues --    0.08241   0.10143   0.10796   0.12611   0.12965

  Beta  occ. eigenvalues --  -24.89197 -24.89190 -24.88608 -24.88578 -24.87875
  Beta  occ. eigenvalues --  -24.87100 -24.87067 -24.86884 -24.86367 -24.86183
  Beta  occ. eigenvalues --  -24.86178 -24.86050 -24.86031 -24.85984 -24.85932
  Beta  occ. eigenvalues --  -24.85483 -24.85446 -24.85428 -19.40158 -19.39040
  Beta  occ. eigenvalues --  -19.37200 -19.36273 -19.35475 -14.62868 -14.62855
  Beta  occ. eigenvalues --  -14.62743 -14.47953 -10.62639 -10.61938 -10.59780
  Beta  occ. eigenvalues --  -10.59687 -10.59225 -10.58616 -10.58031 -10.57602
  Beta  occ. eigenvalues --  -10.56409 -10.53543 -10.53412 -10.43859 -10.37329
  Beta  occ. eigenvalues --   -1.46195  -1.46163  -1.45394  -1.45350  -1.44375
  Beta  occ. eigenvalues --   -1.44081  -1.39873  -1.39624  -1.37754  -1.37365
  Beta  occ. eigenvalues --   -1.37173  -1.36254  -1.35982  -1.35813  -1.35541
  Beta  occ. eigenvalues --   -1.35320  -1.35065  -1.34902  -1.34124  -1.30212
  Beta  occ. eigenvalues --   -1.28795  -1.24593  -1.23627  -1.20936  -1.18327
  Beta  occ. eigenvalues --   -1.17565  -1.05005  -0.99334  -0.98129  -0.95935
  Beta  occ. eigenvalues --   -0.92763  -0.92554  -0.87421  -0.86285  -0.85429
  Beta  occ. eigenvalues --   -0.84747  -0.84013  -0.81826  -0.80113  -0.78210
  Beta  occ. eigenvalues --   -0.76989  -0.76416  -0.76089  -0.74820  -0.74300
  Beta  occ. eigenvalues --   -0.73859  -0.73288  -0.73045  -0.72376  -0.72226
  Beta  occ. eigenvalues --   -0.71929  -0.71686  -0.71349  -0.70852  -0.70446
  Beta  occ. eigenvalues --   -0.70060  -0.69800  -0.69545  -0.69266  -0.67553
  Beta  occ. eigenvalues --   -0.66612  -0.66481  -0.64658  -0.63888  -0.63671
  Beta  occ. eigenvalues --   -0.63319  -0.62149  -0.61513  -0.61030  -0.60681
  Beta  occ. eigenvalues --   -0.60557  -0.60385  -0.60045  -0.59864  -0.59560
  Beta  occ. eigenvalues --   -0.59369  -0.58943  -0.58916  -0.58454  -0.58027
  Beta  occ. eigenvalues --   -0.57805  -0.57673  -0.57055  -0.56772  -0.56298
  Beta  occ. eigenvalues --   -0.56051  -0.55969  -0.55841  -0.55544  -0.55123
  Beta  occ. eigenvalues --   -0.54909  -0.54661  -0.54215  -0.54014  -0.53906
  Beta  occ. eigenvalues --   -0.53626  -0.53300  -0.52819  -0.52488  -0.52406
  Beta  occ. eigenvalues --   -0.52057  -0.51723  -0.51408  -0.50374  -0.50165
  Beta  occ. eigenvalues --   -0.49254  -0.48835  -0.48533  -0.47797  -0.47431
  Beta  occ. eigenvalues --   -0.46435  -0.45704  -0.45132  -0.44785
  Beta virt. eigenvalues --   -0.32949  -0.10380  -0.08853  -0.01436  -0.00041
  Beta virt. eigenvalues --    0.00616   0.01059   0.02712   0.02843   0.04713
  Beta virt. eigenvalues --    0.07290   0.08283   0.10271   0.10907   0.12666

 Mulliken charges and spin densities:
               1          2
     1  N   -0.410254  -0.000416
     2  C    0.370788   0.001805
     3  C   -0.159289   0.001482
     4  N   -0.581676   0.044692
     5  C    0.933861  -0.054474
     6  O   -0.315177   0.390164
     7  N   -0.642372   0.023447
     8  C    0.753971  -0.003253
     9  F   -0.247509   0.002990
    10  F   -0.227913   0.011474
    11  C    0.447234   0.000086
    12  F   -0.243174   0.003512
    13  O   -0.500845   0.000205
    14  C    1.005692  -0.000008
    15  F   -0.238938   0.000009
    16  F   -0.242997   0.000011
    17  F   -0.232672  -0.000001
    18  C    0.809527  -0.000301
    19  F   -0.229457   0.001993
    20  F   -0.237028   0.000213
    21  F   -0.256747   0.000055
    22  C    0.900318  -0.030787
    23  O   -0.362478   0.176833
    24  N   -0.646526   0.025856
    25  C    0.749899  -0.004303
    26  F   -0.232884   0.011634
    27  F   -0.233987   0.004363
    28  C    0.445653   0.000041
    29  F   -0.244958   0.002333
    30  O   -0.521851   0.003676
    31  C    1.006845  -0.000053
    32  F   -0.235972   0.000283
    33  F   -0.230616   0.000004
    34  F   -0.236147  -0.000003
    35  C    0.826259  -0.000033
    36  F   -0.237549  -0.000004
    37  F   -0.248900  -0.000014
    38  F   -0.240831   0.000034
    39  C    0.959001  -0.058964
    40  O   -0.291818   0.445373
    41  H    0.260057  -0.000085
    42  H    0.261461   0.000132
 Sum of Mulliken charges =   1.00000   1.00000

 Dipole moment (field-independent basis, Debye):
    X=              1.0868    Y=             -9.6772    Z=              0.8417  Tot=              9.7744
 Quadrupole moment (field-independent basis, Debye-Ang):
   XX=           -196.3172   YY=           -174.7699   ZZ=           -216.8525
   XY=             -2.6906   XZ=             -0.8566   YZ=              6.1805

 Normal termination of Gaussian 09 at Sun Mar  3 18:13:31 2024.
