 Gaussian 09, Revision D.01,
 Gaussian 09:  ES64L-G09RevD.01 24-Apr-2013

 ----------------------------------------------------------------------
 #p CAM-B3LYP/6-31G(d,p) SCRF=(PCM,Solvent=Generic,Read) NoSymm out=wfn
 ----------------------------------------------------------------------

 -------------------
 Title A458445981_p1
 -------------------
 Symbolic Z-matrix:
 Charge =  1 Multiplicity = 2

                          Input orientation:
 ---------------------------------------------------------------------
 Center     Atomic      Atomic             Coordinates (Angstroms)
 Number     Number       Type             X           Y           Z
 ---------------------------------------------------------------------
      1          7           0        4.034706   -1.496879   -3.679544
      2          6           0        2.897840   -1.413603   -3.460471
      3          6           0        1.462041   -1.291940   -3.153440
      4          7           0        1.257427   -0.644470   -1.856269
      5          6           0        1.193674   -1.438103   -0.734842
      6          8           0        1.276805   -2.660841   -0.815922
      7          7           0        0.984741   -0.795252    0.455661
      8          6           0        0.710137   -1.596034    1.642706
      9          9           0        1.489260   -2.709124    1.639178
     10          9           0        1.188147   -0.891522    2.719524
     11          6           0       -0.779621   -1.953998    1.928951
     12          9           0       -1.561458   -0.898951    1.501146
     13          8           0       -1.104594   -2.028767    3.326577
     14          6           0       -0.628298   -3.182072    3.970928
     15          9           0       -1.339155   -4.247582    3.573176
     16          9           0       -0.777616   -3.029618    5.297949
     17          9           0        0.667665   -3.374832    3.698193
     18          6           0       -1.205167   -3.156111    1.086910
     19          9           0       -0.425320   -4.237348    1.273465
     20          9           0       -2.476807   -3.522674    1.384401
     21          9           0       -1.201633   -2.856815   -0.233225
     22          6           0        0.708215    0.549945    0.517253
     23          8           0        0.120232    1.050239    1.471577
     24          7           0        1.063402    1.296514   -0.576892
     25          6           0        0.867257    2.740108   -0.518852
     26          9           0        1.767439    3.319274   -1.363215
     27          9           0        1.257456    3.186919    0.709728
     28          6           0       -0.563532    3.239327   -0.831794
     29          9           0       -0.981118    2.757891   -2.038339
     30          8           0       -1.520226    2.862652    0.169701
     31          6           0       -2.443723    1.920105   -0.300044
     32          9           0       -3.218978    1.518501    0.722558
     33          9           0       -1.794159    0.845243   -0.796174
     34          9           0       -3.224312    2.463879   -1.248467
     35          6           0       -0.492748    4.760786   -0.908087
     36          9           0       -0.056489    5.317235    0.243950
     37          9           0       -1.725052    5.280311   -1.148048
     38          9           0        0.310281    5.200036   -1.901056
     39          6           0        1.165570    0.728435   -1.820813
     40          8           0        1.135264    1.389893   -2.855530
     41          1           0        0.998766   -2.284926   -3.151562
     42          1           0        0.963681   -0.715833   -3.940947
 ---------------------------------------------------------------------

 SCF Done:  E(UCAM-B3LYP) =  -2887.65445277     A.U. after   56 cycles

 Alpha  occ. eigenvalues --  -24.89769 -24.88807 -24.88794 -24.88751 -24.88592
 Alpha  occ. eigenvalues --  -24.88337 -24.88263 -24.88090 -24.87274 -24.87057
 Alpha  occ. eigenvalues --  -24.86984 -24.86598 -24.86225 -24.86121 -24.86054
 Alpha  occ. eigenvalues --  -24.85867 -24.85856 -24.85193 -19.41970 -19.37754
 Alpha  occ. eigenvalues --  -19.37529 -19.37054 -19.36899 -14.63764 -14.62546
 Alpha  occ. eigenvalues --  -14.62417 -14.47926 -10.63655 -10.62595 -10.60009
 Alpha  occ. eigenvalues --  -10.59505 -10.59379 -10.58255 -10.58152 -10.57074
 Alpha  occ. eigenvalues --  -10.56555 -10.54041 -10.53748 -10.43788 -10.37299
 Alpha  occ. eigenvalues --   -1.47090  -1.46824  -1.45637  -1.45352  -1.45132
 Alpha  occ. eigenvalues --   -1.43862  -1.41215  -1.40229  -1.37824  -1.37771
 Alpha  occ. eigenvalues --   -1.37574  -1.37400  -1.36776  -1.36360  -1.35866
 Alpha  occ. eigenvalues --   -1.35777  -1.35187  -1.35155  -1.34551  -1.31697
 Alpha  occ. eigenvalues --   -1.29818  -1.24869  -1.24238  -1.22372  -1.18814
 Alpha  occ. eigenvalues --   -1.18073  -1.04989  -0.99441  -0.98330  -0.96142
 Alpha  occ. eigenvalues --   -0.93527  -0.92941  -0.87922  -0.86467  -0.85947
 Alpha  occ. eigenvalues --   -0.85580  -0.84712  -0.81873  -0.80422  -0.78773
 Alpha  occ. eigenvalues --   -0.77421  -0.77160  -0.76230  -0.75651  -0.75445
 Alpha  occ. eigenvalues --   -0.74466  -0.73877  -0.73770  -0.73088  -0.72703
 Alpha  occ. eigenvalues --   -0.72420  -0.72245  -0.71701  -0.71041  -0.70456
 Alpha  occ. eigenvalues --   -0.70419  -0.70352  -0.69713  -0.69102  -0.68817
 Alpha  occ. eigenvalues --   -0.67365  -0.66236  -0.65381  -0.65077  -0.64121
 Alpha  occ. eigenvalues --   -0.63177  -0.63115  -0.62044  -0.61628  -0.61351
 Alpha  occ. eigenvalues --   -0.61027  -0.60665  -0.60527  -0.60124  -0.59984
 Alpha  occ. eigenvalues --   -0.59676  -0.59426  -0.59207  -0.58990  -0.58749
 Alpha  occ. eigenvalues --   -0.58333  -0.58196  -0.57812  -0.57384  -0.57182
 Alpha  occ. eigenvalues --   -0.56928  -0.56619  -0.56253  -0.55911  -0.55697
 Alpha  occ. eigenvalues --   -0.55458  -0.55102  -0.54836  -0.54358  -0.54173
 Alpha  occ. eigenvalues --   -0.54078  -0.53727  -0.53589  -0.53439  -0.53287
 Alpha  occ. eigenvalues --   -0.53009  -0.52683  -0.52606  -0.52193  -0.51922
 Alpha  occ. eigenvalues --   -0.51806  -0.51069  -0.50289  -0.49946  -0.49483
 Alpha  occ. eigenvalues --   -0.48397  -0.47032  -0.46390  -0.46216  -0.45530
 Alpha virt. eigenvalues --   -0.10806  -0.09377  -0.01259  -0.00544  -0.00233
 Alpha virt. eigenvalues --    0.01052   0.02011   0.02802   0.04489   0.07611
 Alpha virt. eigenvalues --    0.08105   0.09585   0.11641   0.12632   0.12779

  Beta  occ. eigenvalues --  -24.89700 -24.88803 -24.88795 -24.88724 -24.88572
  Beta  occ. eigenvalues --  -24.88333 -24.88238 -24.88075 -24.87273 -24.87056
  Beta  occ. eigenvalues --  -24.86984 -24.86597 -24.86225 -24.86120 -24.86054
  Beta  occ. eigenvalues --  -24.85867 -24.85856 -24.85193 -19.40711 -19.37032
  Beta  occ. eigenvalues --  -19.37013 -19.36898 -19.36858 -14.63681 -14.62472
  Beta  occ. eigenvalues --  -14.62370 -14.47914 -10.63655 -10.62595 -10.60014
  Beta  occ. eigenvalues --  -10.59504 -10.59382 -10.58361 -10.58152 -10.57140
  Beta  occ. eigenvalues --  -10.56628 -10.54041 -10.53749 -10.43765 -10.37303
  Beta  occ. eigenvalues --   -1.47086  -1.46802  -1.45634  -1.45321  -1.45052
  Beta  occ. eigenvalues --   -1.43847  -1.41206  -1.40196  -1.37822  -1.37681
  Beta  occ. eigenvalues --   -1.37519  -1.37377  -1.36760  -1.36358  -1.35860
  Beta  occ. eigenvalues --   -1.35765  -1.35155  -1.34556  -1.34215  -1.30156
  Beta  occ. eigenvalues --   -1.28751  -1.24825  -1.24232  -1.21114  -1.18311
  Beta  occ. eigenvalues --   -1.17593  -1.04953  -0.99419  -0.98273  -0.95988
  Beta  occ. eigenvalues --   -0.93175  -0.92537  -0.87506  -0.86256  -0.85817
  Beta  occ. eigenvalues --   -0.84902  -0.84617  -0.81846  -0.80367  -0.78739
  Beta  occ. eigenvalues --   -0.77389  -0.77113  -0.76192  -0.75630  -0.75392
  Beta  occ. eigenvalues --   -0.74449  -0.73852  -0.73713  -0.73073  -0.72654
  Beta  occ. eigenvalues --   -0.72382  -0.72231  -0.71631  -0.70919  -0.70426
  Beta  occ. eigenvalues --   -0.70384  -0.70031  -0.69590  -0.68832  -0.68251
  Beta  occ. eigenvalues --   -0.66949  -0.65602  -0.64767  -0.64450  -0.63984
  Beta  occ. eigenvalues --   -0.63000  -0.62636  -0.61939  -0.61427  -0.61207
  Beta  occ. eigenvalues --   -0.60772  -0.60529  -0.60478  -0.60079  -0.59748
  Beta  occ. eigenvalues --   -0.59542  -0.59229  -0.59168  -0.58875  -0.58598
  Beta  occ. eigenvalues --   -0.58302  -0.58129  -0.57739  -0.57252  -0.56929
  Beta  occ. eigenvalues --   -0.56434  -0.56422  -0.56020  -0.55831  -0.55551
  Beta  occ. eigenvalues --   -0.55118  -0.54798  -0.54386  -0.54173  -0.54072
  Beta  occ. eigenvalues --   -0.53681  -0.53529  -0.53276  -0.53092  -0.52735
  Beta  occ. eigenvalues --   -0.52689  -0.52622  -0.52015  -0.51898  -0.50862
  Beta  occ. eigenvalues --   -0.50105  -0.49585  -0.48114  -0.47238  -0.46729
  Beta  occ. eigenvalues --   -0.46507  -0.45555  -0.45236  -0.44713
  Beta virt. eigenvalues --   -0.33070  -0.10499  -0.09186  -0.01235  -0.00496
  Beta virt. eigenvalues --   -0.00170   0.01085   0.02039   0.02840   0.04537
  Beta virt. eigenvalues --    0.07734   0.08159   0.09672   0.11798   0.12802

 Mulliken charges and spin densities:
               1          2
     1  N   -0.412298   0.006703
     2  C    0.378611  -0.000790
     3  C   -0.156461   0.005922
     4  N   -0.588517   0.036887
     5  C    0.952728  -0.061767
     6  O   -0.288606   0.471613
     7  N   -0.629802   0.037612
     8  C    0.750123  -0.004714
     9  F   -0.222577   0.016893
    10  F   -0.247088   0.006328
    11  C    0.447458   0.000744
    12  F   -0.267299   0.003506
    13  O   -0.480878   0.000495
    14  C    0.986140  -0.000042
    15  F   -0.234188   0.000036
    16  F   -0.227429   0.000030
    17  F   -0.234905   0.000143
    18  C    0.819103  -0.000361
    19  F   -0.234103   0.000226
    20  F   -0.243351   0.000118
    21  F   -0.248350   0.001237
    22  C    0.903712  -0.041061
    23  O   -0.344014   0.249323
    24  N   -0.643308   0.022547
    25  C    0.778653  -0.003630
    26  F   -0.234566   0.006682
    27  F   -0.234147   0.005084
    28  C    0.424130  -0.000027
    29  F   -0.255518   0.001082
    30  O   -0.508287   0.006599
    31  C    1.032465  -0.000493
    32  F   -0.226524   0.000015
    33  F   -0.273350  -0.000035
    34  F   -0.233689   0.000343
    35  C    0.827862   0.000138
    36  F   -0.236588   0.000004
    37  F   -0.246739   0.000018
    38  F   -0.236082   0.000056
    39  C    0.918671  -0.045114
    40  O   -0.349536   0.278229
    41  H    0.256106  -0.000112
    42  H    0.262440  -0.000470
 Sum of Mulliken charges =   1.00000   1.00000

 Dipole moment (field-independent basis, Debye):
    X=              1.4938    Y=             -2.7573    Z=             -3.9093  Tot=              5.0116
 Quadrupole moment (field-independent basis, Debye-Ang):
   XX=           -215.1950   YY=           -195.6713   ZZ=           -192.1536
   XY=              2.4216   XZ=              7.0490   YZ=             -0.6125

 Normal termination of Gaussian 09 at Sun Mar  3 18:13:00 2024.
