 Gaussian 09, Revision D.01,
 Gaussian 09:  ES64L-G09RevD.01 24-Apr-2013

 ----------------------------------------------------------------------
 #p CAM-B3LYP/6-31G(d,p) SCRF=(PCM,Solvent=Generic,Read) NoSymm out=wfn
 ----------------------------------------------------------------------

 ------------------
 Title A458445981_0
 ------------------
 Symbolic Z-matrix:
 Charge =  0 Multiplicity = 1

                          Input orientation:
 ---------------------------------------------------------------------
 Center     Atomic      Atomic             Coordinates (Angstroms)
 Number     Number       Type             X           Y           Z
 ---------------------------------------------------------------------
      1          7           0        4.034706   -1.496879   -3.679544
      2          6           0        2.897840   -1.413603   -3.460471
      3          6           0        1.462041   -1.291940   -3.153440
      4          7           0        1.257427   -0.644470   -1.856269
      5          6           0        1.193674   -1.438103   -0.734842
      6          8           0        1.276805   -2.660841   -0.815922
      7          7           0        0.984741   -0.795252    0.455661
      8          6           0        0.710137   -1.596034    1.642706
      9          9           0        1.489260   -2.709124    1.639178
     10          9           0        1.188147   -0.891522    2.719524
     11          6           0       -0.779621   -1.953998    1.928951
     12          9           0       -1.561458   -0.898951    1.501146
     13          8           0       -1.104594   -2.028767    3.326577
     14          6           0       -0.628298   -3.182072    3.970928
     15          9           0       -1.339155   -4.247582    3.573176
     16          9           0       -0.777616   -3.029618    5.297949
     17          9           0        0.667665   -3.374832    3.698193
     18          6           0       -1.205167   -3.156111    1.086910
     19          9           0       -0.425320   -4.237348    1.273465
     20          9           0       -2.476807   -3.522674    1.384401
     21          9           0       -1.201633   -2.856815   -0.233225
     22          6           0        0.708215    0.549945    0.517253
     23          8           0        0.120232    1.050239    1.471577
     24          7           0        1.063402    1.296514   -0.576892
     25          6           0        0.867257    2.740108   -0.518852
     26          9           0        1.767439    3.319274   -1.363215
     27          9           0        1.257456    3.186919    0.709728
     28          6           0       -0.563532    3.239327   -0.831794
     29          9           0       -0.981118    2.757891   -2.038339
     30          8           0       -1.520226    2.862652    0.169701
     31          6           0       -2.443723    1.920105   -0.300044
     32          9           0       -3.218978    1.518501    0.722558
     33          9           0       -1.794159    0.845243   -0.796174
     34          9           0       -3.224312    2.463879   -1.248467
     35          6           0       -0.492748    4.760786   -0.908087
     36          9           0       -0.056489    5.317235    0.243950
     37          9           0       -1.725052    5.280311   -1.148048
     38          9           0        0.310281    5.200036   -1.901056
     39          6           0        1.165570    0.728435   -1.820813
     40          8           0        1.135264    1.389893   -2.855530
     41          1           0        0.998766   -2.284926   -3.151562
     42          1           0        0.963681   -0.715833   -3.940947
 ---------------------------------------------------------------------

 SCF Done:  E(RCAM-B3LYP) =  -2888.00639533     A.U. after   13 cycles

 Alpha  occ. eigenvalues --  -24.85072 -24.84870 -24.84386 -24.84194 -24.84178
 Alpha  occ. eigenvalues --  -24.83912 -24.83891 -24.83847 -24.83779 -24.83689
 Alpha  occ. eigenvalues --  -24.83633 -24.83579 -24.83416 -24.83385 -24.83327
 Alpha  occ. eigenvalues --  -24.83072 -24.82799 -24.82698 -19.33534 -19.33244
 Alpha  occ. eigenvalues --  -19.25591 -19.25317 -19.25135 -14.54280 -14.53987
 Alpha  occ. eigenvalues --  -14.52969 -14.43695 -10.60457 -10.60014 -10.55830
 Alpha  occ. eigenvalues --  -10.55334 -10.54061 -10.54031 -10.49764 -10.49656
 Alpha  occ. eigenvalues --  -10.47885 -10.47246 -10.47208 -10.37713 -10.33271
 Alpha  occ. eigenvalues --   -1.43859  -1.43842  -1.42298  -1.41959  -1.39722
 Alpha  occ. eigenvalues --   -1.39461  -1.37412  -1.35875  -1.34483  -1.34340
 Alpha  occ. eigenvalues --   -1.33863  -1.33592  -1.33266  -1.33081  -1.32654
 Alpha  occ. eigenvalues --   -1.32222  -1.32108  -1.31911  -1.24769  -1.21160
 Alpha  occ. eigenvalues --   -1.20919  -1.19366  -1.19303  -1.11322  -1.09745
 Alpha  occ. eigenvalues --   -1.08858  -1.00832  -0.94648  -0.93622  -0.89686
 Alpha  occ. eigenvalues --   -0.86424  -0.85257  -0.82801  -0.81616  -0.80368
 Alpha  occ. eigenvalues --   -0.80081  -0.77396  -0.76513  -0.76118  -0.74580
 Alpha  occ. eigenvalues --   -0.73629  -0.72670  -0.71947  -0.71816  -0.71533
 Alpha  occ. eigenvalues --   -0.70772  -0.70525  -0.70355  -0.69353  -0.69192
 Alpha  occ. eigenvalues --   -0.68269  -0.67860  -0.67192  -0.66852  -0.66282
 Alpha  occ. eigenvalues --   -0.65701  -0.64906  -0.64416  -0.62705  -0.61375
 Alpha  occ. eigenvalues --   -0.60255  -0.59403  -0.58517  -0.58091  -0.57751
 Alpha  occ. eigenvalues --   -0.57593  -0.57463  -0.57044  -0.56883  -0.56634
 Alpha  occ. eigenvalues --   -0.56445  -0.56172  -0.55939  -0.55804  -0.55490
 Alpha  occ. eigenvalues --   -0.55368  -0.55179  -0.54928  -0.54563  -0.54317
 Alpha  occ. eigenvalues --   -0.54230  -0.54009  -0.53558  -0.53532  -0.52925
 Alpha  occ. eigenvalues --   -0.52497  -0.52401  -0.52033  -0.51969  -0.51539
 Alpha  occ. eigenvalues --   -0.51318  -0.51240  -0.51078  -0.50789  -0.50678
 Alpha  occ. eigenvalues --   -0.50560  -0.50353  -0.50016  -0.49650  -0.49521
 Alpha  occ. eigenvalues --   -0.49486  -0.48942  -0.48821  -0.48090  -0.45865
 Alpha  occ. eigenvalues --   -0.44470  -0.44079  -0.42865  -0.41956  -0.41256
 Alpha  occ. eigenvalues --   -0.40898  -0.39799  -0.39289  -0.38884  -0.37235
 Alpha virt. eigenvalues --   -0.00856  -0.00596   0.04343   0.04774   0.05047
 Alpha virt. eigenvalues --    0.06214   0.07010   0.07988   0.10243   0.13013
 Alpha virt. eigenvalues --    0.13657   0.14882   0.16984   0.17830   0.18545

 Mulliken charges:
               1
     1  N   -0.450353
     2  C    0.357295
     3  C   -0.118392
     4  N   -0.590520
     5  C    0.849463
     6  O   -0.492820
     7  N   -0.634281
     8  C    0.764501
     9  F   -0.243056
    10  F   -0.270656
    11  C    0.436594
    12  F   -0.272857
    13  O   -0.494091
    14  C    0.979555
    15  F   -0.239698
    16  F   -0.234932
    17  F   -0.235057
    18  C    0.818207
    19  F   -0.241636
    20  F   -0.256496
    21  F   -0.246011
    22  C    0.840014
    23  O   -0.473431
    24  N   -0.648267
    25  C    0.787585
    26  F   -0.252575
    27  F   -0.252603
    28  C    0.425089
    29  F   -0.260289
    30  O   -0.513355
    31  C    1.027812
    32  F   -0.235079
    33  F   -0.267315
    34  F   -0.242916
    35  C    0.815296
    36  F   -0.242305
    37  F   -0.255351
    38  F   -0.240998
    39  C    0.841841
    40  O   -0.490233
    41  H    0.225516
    42  H    0.226808
 Sum of Mulliken charges =   0.00000

 Dipole moment (field-independent basis, Debye):
    X=             -2.8579    Y=             -1.0220    Z=             -0.6383  Tot=              3.1015
 Quadrupole moment (field-independent basis, Debye-Ang):
   XX=           -228.7537   YY=           -221.4971   ZZ=           -216.0709
   XY=              6.6931   XZ=             15.8374   YZ=              0.6693

 Normal termination of Gaussian 09 at Sun Mar  3 18:09:22 2024.
