 Gaussian 09, Revision D.01,
 Gaussian 09:  ES64L-G09RevD.01 24-Apr-2013

 ----------------------------------------------------------------------
 #p CAM-B3LYP/6-31G(d,p) SCRF=(PCM,Solvent=Generic,Read) NoSymm out=wfn
 ----------------------------------------------------------------------

 --------------------
 Title A1452355790_p1
 --------------------
 Symbolic Z-matrix:
 Charge =  1 Multiplicity = 2

                          Input orientation:
 ---------------------------------------------------------------------
 Center     Atomic      Atomic             Coordinates (Angstroms)
 Number     Number       Type             X           Y           Z
 ---------------------------------------------------------------------
      1          6           0        3.083310    2.334358   -0.164718
      2          6           0        3.304324    1.382425   -1.330826
      3          6           0        2.000070    0.901957   -1.977106
      4          7           0        1.205702    0.048483   -1.091813
      5          6           0        1.527275   -1.292050   -1.023409
      6          8           0        2.513624   -1.759390   -1.594167
      7          7           0        0.661767   -2.077071   -0.289913
      8          6           0        0.879374   -3.523087   -0.281031
      9          6           0        1.801534   -3.944585    0.854412
     10          6           0       -0.351295   -1.559390    0.491346
     11          8           0       -1.139465   -2.293101    1.086621
     12          7           0       -0.433470   -0.191255    0.555914
     13          6           0       -1.514182    0.379905    1.346432
     14          9           0       -1.600770   -0.311052    2.520344
     15          9           0       -1.150414    1.624921    1.760303
     16          6           0       -2.896886    0.413890    0.640128
     17          9           0       -3.216247   -0.871425    0.261138
     18          8           0       -2.905039    1.105832   -0.615252
     19          6           0       -3.134442    2.492411   -0.529176
     20          9           0       -2.398569    3.053531    0.436574
     21          9           0       -4.436230    2.710869   -0.279716
     22          9           0       -2.826085    3.056787   -1.710442
     23          6           0       -3.934564    0.833764    1.689954
     24          9           0       -5.179431    0.854136    1.150536
     25          9           0       -3.705413    2.064784    2.193071
     26          9           0       -3.990818   -0.017720    2.738096
     27          6           0        0.161740    0.605678   -0.385262
     28          8           0       -0.226682    1.752690   -0.603625
     29          1           0        2.478402    3.194607   -0.468104
     30          1           0        4.044522    2.709054    0.201478
     31          1           0        2.582657    1.834336    0.669749
     32          1           0        3.899003    1.899457   -2.093216
     33          1           0        3.898897    0.528258   -0.987583
     34          1           0        1.410071    1.765135   -2.305105
     35          1           0        2.245400    0.330368   -2.880654
     36          1           0        1.311850   -3.836431   -1.238059
     37          1           0       -0.081715   -4.039874   -0.180964
     38          1           0        1.951218   -5.028478    0.839807
     39          1           0        2.780616   -3.462403    0.767110
     40          1           0        1.380361   -3.670327    1.827126
 ---------------------------------------------------------------------

 SCF Done:  E(UCAM-B3LYP) =  -1827.37529678     A.U. after   47 cycles

 Alpha  occ. eigenvalues --  -24.86583 -24.86377 -24.86002 -24.85846 -24.85635
 Alpha  occ. eigenvalues --  -24.85390 -24.85275 -24.85148 -24.84512 -19.35988
 Alpha  occ. eigenvalues --  -19.34659 -19.31252 -19.30680 -14.64711 -14.59298
 Alpha  occ. eigenvalues --  -14.58784 -10.61842 -10.57571 -10.57166 -10.54025
 Alpha  occ. eigenvalues --  -10.52396 -10.52161 -10.51773 -10.39481 -10.36613
 Alpha  occ. eigenvalues --  -10.33131 -10.30029 -10.29479  -1.45480  -1.43877
 Alpha  occ. eigenvalues --   -1.42650  -1.38265  -1.36147  -1.35370  -1.35176
 Alpha  occ. eigenvalues --   -1.34519  -1.33916  -1.31001  -1.25874  -1.24456
 Alpha  occ. eigenvalues --   -1.23263  -1.17936  -1.15266  -1.13919  -0.96983
 Alpha  occ. eigenvalues --   -0.95579  -0.92586  -0.90374  -0.87886  -0.85370
 Alpha  occ. eigenvalues --   -0.84847  -0.83253  -0.81345  -0.79268  -0.77386
 Alpha  occ. eigenvalues --   -0.76435  -0.74701  -0.74339  -0.73459  -0.72315
 Alpha  occ. eigenvalues --   -0.71815  -0.71058  -0.70367  -0.69205  -0.69151
 Alpha  occ. eigenvalues --   -0.67097  -0.66478  -0.64618  -0.63770  -0.62273
 Alpha  occ. eigenvalues --   -0.62061  -0.60908  -0.60843  -0.60062  -0.59867
 Alpha  occ. eigenvalues --   -0.59156  -0.58855  -0.58501  -0.58098  -0.57800
 Alpha  occ. eigenvalues --   -0.57317  -0.56688  -0.56416  -0.56031  -0.55784
 Alpha  occ. eigenvalues --   -0.55593  -0.54897  -0.53852  -0.53729  -0.53340
 Alpha  occ. eigenvalues --   -0.52893  -0.52669  -0.52179  -0.51962  -0.51418
 Alpha  occ. eigenvalues --   -0.50854  -0.50561  -0.49566  -0.49213  -0.48535
 Alpha  occ. eigenvalues --   -0.47614  -0.47073  -0.46516  -0.46305  -0.45771
 Alpha  occ. eigenvalues --   -0.45041  -0.44477  -0.43359  -0.42857
 Alpha virt. eigenvalues --   -0.06859  -0.05501   0.01842   0.03493   0.06256
 Alpha virt. eigenvalues --    0.08969   0.09308   0.09895   0.11485   0.12478
 Alpha virt. eigenvalues --    0.14040   0.14242   0.14902   0.15447   0.15693

  Beta  occ. eigenvalues --  -24.86576 -24.86374 -24.86000 -24.85847 -24.85634
  Beta  occ. eigenvalues --  -24.85389 -24.85275 -24.85148 -24.84512 -19.35982
  Beta  occ. eigenvalues --  -19.34018 -19.31198 -19.30433 -14.63655 -14.58848
  Beta  occ. eigenvalues --  -14.58838 -10.61842 -10.57571 -10.57166 -10.54232
  Beta  occ. eigenvalues --  -10.52502 -10.52163 -10.51863 -10.39433 -10.36604
  Beta  occ. eigenvalues --  -10.32979 -10.29973 -10.29469  -1.45479  -1.43876
  Beta  occ. eigenvalues --   -1.42644  -1.38261  -1.36143  -1.35367  -1.35170
  Beta  occ. eigenvalues --   -1.34518  -1.33916  -1.30204  -1.25138  -1.24033
  Beta  occ. eigenvalues --   -1.23241  -1.16737  -1.14529  -1.13086  -0.96777
  Beta  occ. eigenvalues --   -0.95256  -0.92304  -0.90225  -0.87655  -0.85078
  Beta  occ. eigenvalues --   -0.84794  -0.83026  -0.81107  -0.79090  -0.77248
  Beta  occ. eigenvalues --   -0.76380  -0.74639  -0.73985  -0.73396  -0.72124
  Beta  occ. eigenvalues --   -0.71737  -0.70512  -0.69890  -0.69183  -0.68237
  Beta  occ. eigenvalues --   -0.66930  -0.66093  -0.63683  -0.63118  -0.62075
  Beta  occ. eigenvalues --   -0.61382  -0.60454  -0.60251  -0.59868  -0.59380
  Beta  occ. eigenvalues --   -0.59075  -0.58634  -0.58330  -0.57785  -0.57746
  Beta  occ. eigenvalues --   -0.57183  -0.56668  -0.56095  -0.55863  -0.55590
  Beta  occ. eigenvalues --   -0.55351  -0.54649  -0.53698  -0.53343  -0.53274
  Beta  occ. eigenvalues --   -0.52874  -0.52241  -0.51983  -0.51594  -0.51105
  Beta  occ. eigenvalues --   -0.50824  -0.50480  -0.49174  -0.47907  -0.47201
  Beta  occ. eigenvalues --   -0.46943  -0.46844  -0.46160  -0.45641  -0.45041
  Beta  occ. eigenvalues --   -0.43587  -0.42377  -0.40939
  Beta virt. eigenvalues --   -0.28399  -0.06175  -0.04385   0.01854   0.04399
  Beta virt. eigenvalues --    0.06528   0.09181   0.09447   0.10262   0.11581
  Beta virt. eigenvalues --    0.12639   0.14127   0.14367   0.14960   0.15620

 Mulliken charges and spin densities:
               1          2
     1  C   -0.340348   0.005725
     2  C   -0.206192   0.074899
     3  C   -0.113550   0.019239
     4  N   -0.456649   0.481728
     5  C    0.867647  -0.065801
     6  O   -0.443154   0.024356
     7  N   -0.529663   0.205926
     8  C   -0.095693   0.001469
     9  C   -0.333259   0.027132
    10  C    0.868828  -0.051475
    11  O   -0.431467   0.097374
    12  N   -0.637045  -0.015269
    13  C    0.766692  -0.000785
    14  F   -0.245544   0.000605
    15  F   -0.242693   0.001389
    16  C    0.443806  -0.000504
    17  F   -0.260168   0.000385
    18  O   -0.512047   0.001747
    19  C    1.013523  -0.000491
    20  F   -0.240523  -0.000017
    21  F   -0.241398   0.000072
    22  F   -0.240878   0.000079
    23  C    0.809048  -0.000167
    24  F   -0.253671  -0.000041
    25  F   -0.243201   0.000013
    26  F   -0.240140   0.000004
    27  C    0.883367  -0.119535
    28  O   -0.389654   0.251716
    29  H    0.143997   0.002670
    30  H    0.157931   0.011615
    31  H    0.116152  -0.000052
    32  H    0.178901   0.004053
    33  H    0.162582  -0.001435
    34  H    0.220271   0.006942
    35  H    0.224458   0.026160
    36  H    0.190050   0.005666
    37  H    0.195163   0.003303
    38  H    0.163177   0.002596
    39  H    0.144546  -0.001094
    40  H    0.146799  -0.000196
 Sum of Mulliken charges =   1.00000   1.00000

 Dipole moment (field-independent basis, Debye):
    X=              7.5900    Y=             -2.0401    Z=             -4.2933  Tot=              8.9556
 Quadrupole moment (field-independent basis, Debye-Ang):
   XX=           -137.2541   YY=           -128.5664   ZZ=           -143.1861
   XY=              2.3392   XZ=             -3.9917   YZ=             -3.4890

 Normal termination of Gaussian 09 at Sun Mar  3 17:40:07 2024.
