 Gaussian 09, Revision D.01,
 Gaussian 09:  ES64L-G09RevD.01 24-Apr-2013

 ----------------------------------------------------------------------
 #p CAM-B3LYP/6-31G(d,p) SCRF=(PCM,Solvent=Generic,Read) NoSymm out=wfn
 ----------------------------------------------------------------------

 -------------------
 Title A1452355790_0
 -------------------
 Symbolic Z-matrix:
 Charge =  0 Multiplicity = 1

                          Input orientation:
 ---------------------------------------------------------------------
 Center     Atomic      Atomic             Coordinates (Angstroms)
 Number     Number       Type             X           Y           Z
 ---------------------------------------------------------------------
      1          6           0        3.083310    2.334358   -0.164718
      2          6           0        3.304324    1.382425   -1.330826
      3          6           0        2.000070    0.901957   -1.977106
      4          7           0        1.205702    0.048483   -1.091813
      5          6           0        1.527275   -1.292050   -1.023409
      6          8           0        2.513624   -1.759390   -1.594167
      7          7           0        0.661767   -2.077071   -0.289913
      8          6           0        0.879374   -3.523087   -0.281031
      9          6           0        1.801534   -3.944585    0.854412
     10          6           0       -0.351295   -1.559390    0.491346
     11          8           0       -1.139465   -2.293101    1.086621
     12          7           0       -0.433470   -0.191255    0.555914
     13          6           0       -1.514182    0.379905    1.346432
     14          9           0       -1.600770   -0.311052    2.520344
     15          9           0       -1.150414    1.624921    1.760303
     16          6           0       -2.896886    0.413890    0.640128
     17          9           0       -3.216247   -0.871425    0.261138
     18          8           0       -2.905039    1.105832   -0.615252
     19          6           0       -3.134442    2.492411   -0.529176
     20          9           0       -2.398569    3.053531    0.436574
     21          9           0       -4.436230    2.710869   -0.279716
     22          9           0       -2.826085    3.056787   -1.710442
     23          6           0       -3.934564    0.833764    1.689954
     24          9           0       -5.179431    0.854136    1.150536
     25          9           0       -3.705413    2.064784    2.193071
     26          9           0       -3.990818   -0.017720    2.738096
     27          6           0        0.161740    0.605678   -0.385262
     28          8           0       -0.226682    1.752690   -0.603625
     29          1           0        2.478402    3.194607   -0.468104
     30          1           0        4.044522    2.709054    0.201478
     31          1           0        2.582657    1.834336    0.669749
     32          1           0        3.899003    1.899457   -2.093216
     33          1           0        3.898897    0.528258   -0.987583
     34          1           0        1.410071    1.765135   -2.305105
     35          1           0        2.245400    0.330368   -2.880654
     36          1           0        1.311850   -3.836431   -1.238059
     37          1           0       -0.081715   -4.039874   -0.180964
     38          1           0        1.951218   -5.028478    0.839807
     39          1           0        2.780616   -3.462403    0.767110
     40          1           0        1.380361   -3.670327    1.827126
 ---------------------------------------------------------------------

 SCF Done:  E(RCAM-B3LYP) =  -1827.69055557     A.U. after   13 cycles

 Alpha  occ. eigenvalues --  -24.83161 -24.83084 -24.83004 -24.82999 -24.82930
 Alpha  occ. eigenvalues --  -24.82761 -24.82373 -24.82327 -24.82293 -19.32716
 Alpha  occ. eigenvalues --  -19.23037 -19.22813 -19.22623 -14.51868 -14.49357
 Alpha  occ. eigenvalues --  -14.49281 -10.59149 -10.55097 -10.52630 -10.48766
 Alpha  occ. eigenvalues --  -10.44859 -10.44730 -10.43748 -10.31068 -10.30872
 Alpha  occ. eigenvalues --  -10.26257 -10.25734 -10.24820  -1.42882  -1.41456
 Alpha  occ. eigenvalues --   -1.38688  -1.35050  -1.33359  -1.32940  -1.32327
 Alpha  occ. eigenvalues --   -1.31873  -1.31067  -1.21543  -1.20061  -1.16460
 Alpha  occ. eigenvalues --   -1.16221  -1.08519  -1.06217  -1.04738  -0.92661
 Alpha  occ. eigenvalues --   -0.88443  -0.86179  -0.83932  -0.82051  -0.80528
 Alpha  occ. eigenvalues --   -0.77921  -0.77282  -0.74837  -0.73510  -0.72980
 Alpha  occ. eigenvalues --   -0.71761  -0.71271  -0.70446  -0.69090  -0.68467
 Alpha  occ. eigenvalues --   -0.68032  -0.67490  -0.66386  -0.65252  -0.63442
 Alpha  occ. eigenvalues --   -0.61306  -0.59446  -0.58791  -0.57500  -0.56864
 Alpha  occ. eigenvalues --   -0.56699  -0.55855  -0.55451  -0.55364  -0.55061
 Alpha  occ. eigenvalues --   -0.54586  -0.54255  -0.53791  -0.53402  -0.53092
 Alpha  occ. eigenvalues --   -0.53068  -0.52543  -0.51739  -0.51657  -0.51281
 Alpha  occ. eigenvalues --   -0.50817  -0.50473  -0.50168  -0.49951  -0.49688
 Alpha  occ. eigenvalues --   -0.49277  -0.49036  -0.48512  -0.48051  -0.47625
 Alpha  occ. eigenvalues --   -0.46783  -0.46248  -0.44819  -0.43203  -0.42466
 Alpha  occ. eigenvalues --   -0.41867  -0.41269  -0.40885  -0.38902  -0.38359
 Alpha  occ. eigenvalues --   -0.37476  -0.35820  -0.35069  -0.34495
 Alpha virt. eigenvalues --    0.01600   0.02602   0.05605   0.09371   0.12571
 Alpha virt. eigenvalues --    0.14204   0.14522   0.15832   0.17045   0.17642
 Alpha virt. eigenvalues --    0.18142   0.19069   0.19504   0.19819   0.20042

 Mulliken charges:
               1
     1  C   -0.323032
     2  C   -0.184283
     3  C   -0.066619
     4  N   -0.569917
     5  C    0.830404
     6  O   -0.525761
     7  N   -0.570142
     8  C   -0.064332
     9  C   -0.326637
    10  C    0.828900
    11  O   -0.512905
    12  N   -0.633319
    13  C    0.765251
    14  F   -0.259344
    15  F   -0.253248
    16  C    0.441968
    17  F   -0.265345
    18  O   -0.509257
    19  C    1.011963
    20  F   -0.240619
    21  F   -0.249083
    22  F   -0.245378
    23  C    0.800508
    24  F   -0.260615
    25  F   -0.247288
    26  F   -0.244542
    27  C    0.835574
    28  O   -0.518316
    29  H    0.116633
    30  H    0.111763
    31  H    0.104515
    32  H    0.116759
    33  H    0.120301
    34  H    0.155264
    35  H    0.145266
    36  H    0.151469
    37  H    0.154196
    38  H    0.126789
    39  H    0.126590
    40  H    0.125871
 Sum of Mulliken charges =   0.00000

 Dipole moment (field-independent basis, Debye):
    X=              2.8657    Y=             -0.7142    Z=             -1.3429  Tot=              3.2444
 Quadrupole moment (field-independent basis, Debye-Ang):
   XX=           -160.8651   YY=           -152.9002   ZZ=           -155.6354
   XY=              2.1890   XZ=              4.7519   YZ=             -0.5147

 Normal termination of Gaussian 09 at Sun Mar  3 17:37:48 2024.
