 Gaussian 09, Revision D.01,
 Gaussian 09:  ES64L-G09RevD.01 24-Apr-2013

 ----------------------------------------------------------------------
 #p CAM-B3LYP/6-31G(d,p) SCRF=(PCM,Solvent=Generic,Read) NoSymm out=wfn
 ----------------------------------------------------------------------

 -------------------
 Title A1400116030_0
 -------------------
 Symbolic Z-matrix:
 Charge =  0 Multiplicity = 1

                          Input orientation:
 ---------------------------------------------------------------------
 Center     Atomic      Atomic             Coordinates (Angstroms)
 Number     Number       Type             X           Y           Z
 ---------------------------------------------------------------------
      1          8           0        0.262272   -2.302984   -1.356836
      2          6           0       -0.277911   -1.203951   -1.466829
      3          7           0        0.469245   -0.069640   -1.709604
      4          6           0        1.937315   -0.202930   -1.750625
      5          6           0        2.562519   -0.125977   -0.347036
      6          9           0        2.128336    1.010533    0.259806
      7          9           0        2.077751   -1.147979    0.408981
      8          6           0        4.093458   -0.176044   -0.387030
      9          9           0        4.523061    0.892718   -1.123456
     10          8           0        4.481638   -1.341512   -1.124819
     11          6           0        5.864027   -1.593816   -1.063416
     12          9           0        6.158906   -2.161587    0.116110
     13          9           0        6.180497   -2.453225   -2.049292
     14          9           0        6.569685   -0.465299   -1.228923
     15          6           0        4.587269   -0.061039    1.065473
     16          9           0        4.098707    1.027322    1.699075
     17          9           0        5.936700    0.039567    1.124427
     18          9           0        4.243617   -1.145565    1.796036
     19          6           0       -0.067682    1.200990   -1.738544
     20          8           0        0.652545    2.189294   -1.856229
     21          7           0       -1.426017    1.287720   -1.590457
     22          6           0       -1.999649    2.623666   -1.475306
     23          9           0       -1.509000    3.391176   -2.490921
     24          9           0       -3.332336    2.546406   -1.757539
     25          6           0       -1.781471    3.331547   -0.111442
     26          9           0       -0.454898    3.619572    0.034123
     27          8           0       -2.085144    2.426365    0.955526
     28          6           0       -2.151847    3.052426    2.210001
     29          9           0       -2.096913    2.102622    3.161425
     30          9           0       -1.125104    3.898026    2.382903
     31          9           0       -3.317674    3.708314    2.318001
     32          6           0       -2.590489    4.633145   -0.195941
     33          9           0       -2.286065    5.369091   -1.287083
     34          9           0       -2.361230    5.431491    0.874531
     35          9           0       -3.921487    4.398688   -0.224925
     36          6           0       -2.159096    0.229663   -1.110867
     37          8           0       -3.211263    0.391298   -0.499119
     38          7           0       -1.628074   -1.019292   -1.317084
     39          6           0       -2.422850   -2.168429   -0.897629
     40          9           0       -3.706780   -1.976096   -1.316097
     41          9           0       -2.021071   -3.259544   -1.611498
     42          6           0       -2.390141   -2.484141    0.621989
     43          9           0       -2.985919   -1.462749    1.304326
     44          8           0       -1.033711   -2.497345    1.080319
     45          6           0       -0.890985   -3.012867    2.377890
     46          9           0        0.325126   -2.672246    2.841100
     47          9           0       -0.979588   -4.351495    2.335513
     48          9           0       -1.824023   -2.511346    3.200886
     49          6           0       -3.209393   -3.771816    0.786954
     50          9           0       -2.597168   -4.834717    0.218590
     51          9           0       -4.444199   -3.680714    0.247129
     52          9           0       -3.390643   -4.081967    2.093353
     53          1           0        2.343779    0.593781   -2.383700
     54          1           0        2.183372   -1.159106   -2.225485
 ---------------------------------------------------------------------

 SCF Done:  E(RCAM-B3LYP) =  -3921.13725951     A.U. after   13 cycles

 Alpha  occ. eigenvalues --  -24.83934 -24.83800 -24.83774 -24.83681 -24.83673
 Alpha  occ. eigenvalues --  -24.83639 -24.83624 -24.83590 -24.83566 -24.83543
 Alpha  occ. eigenvalues --  -24.83517 -24.83367 -24.83340 -24.83283 -24.83229
 Alpha  occ. eigenvalues --  -24.83225 -24.83146 -24.83143 -24.83142 -24.82994
 Alpha  occ. eigenvalues --  -24.82939 -24.82920 -24.82919 -24.82892 -24.82757
 Alpha  occ. eigenvalues --  -24.81930 -24.81644 -19.33292 -19.33253 -19.33230
 Alpha  occ. eigenvalues --  -19.25150 -19.24519 -19.24359 -14.53544 -14.53510
 Alpha  occ. eigenvalues --  -14.52051 -10.59768 -10.59767 -10.59736 -10.55596
 Alpha  occ. eigenvalues --  -10.55572 -10.55367 -10.53837 -10.53809 -10.49275
 Alpha  occ. eigenvalues --  -10.49250 -10.48296 -10.47917 -10.47372 -10.46504
 Alpha  occ. eigenvalues --  -10.46438 -10.34986  -1.43415  -1.43400  -1.43382
 Alpha  occ. eigenvalues --   -1.41929  -1.41904  -1.41696  -1.39466  -1.39402
 Alpha  occ. eigenvalues --   -1.37694  -1.35834  -1.35801  -1.35638  -1.33786
 Alpha  occ. eigenvalues --   -1.33718  -1.33681  -1.33479  -1.33462  -1.33444
 Alpha  occ. eigenvalues --   -1.32962  -1.32947  -1.32700  -1.32326  -1.32300
 Alpha  occ. eigenvalues --   -1.32207  -1.31935  -1.31897  -1.30770  -1.24076
 Alpha  occ. eigenvalues --   -1.20872  -1.20789  -1.20667  -1.18666  -1.18435
 Alpha  occ. eigenvalues --   -1.10674  -1.09161  -1.07623  -0.94354  -0.93662
 Alpha  occ. eigenvalues --   -0.93519  -0.89016  -0.86093  -0.84682  -0.82653
 Alpha  occ. eigenvalues --   -0.82319  -0.82244  -0.80843  -0.79186  -0.78268
 Alpha  occ. eigenvalues --   -0.76782  -0.76062  -0.75435  -0.74880  -0.73650
 Alpha  occ. eigenvalues --   -0.73183  -0.73017  -0.72660  -0.72105  -0.71135
 Alpha  occ. eigenvalues --   -0.70723  -0.70664  -0.70600  -0.70323  -0.69758
 Alpha  occ. eigenvalues --   -0.69423  -0.68914  -0.68706  -0.68587  -0.68557
 Alpha  occ. eigenvalues --   -0.67673  -0.67526  -0.67279  -0.66805  -0.66650
 Alpha  occ. eigenvalues --   -0.66240  -0.66088  -0.65190  -0.64631  -0.64543
 Alpha  occ. eigenvalues --   -0.63998  -0.61851  -0.60177  -0.60138  -0.59976
 Alpha  occ. eigenvalues --   -0.58620  -0.57923  -0.57603  -0.57350  -0.57332
 Alpha  occ. eigenvalues --   -0.57247  -0.57137  -0.56790  -0.56567  -0.56407
 Alpha  occ. eigenvalues --   -0.56339  -0.56275  -0.56146  -0.55902  -0.55805
 Alpha  occ. eigenvalues --   -0.55742  -0.55477  -0.55353  -0.55111  -0.55102
 Alpha  occ. eigenvalues --   -0.54827  -0.54612  -0.54523  -0.54095  -0.53915
 Alpha  occ. eigenvalues --   -0.53888  -0.53533  -0.53409  -0.53160  -0.52816
 Alpha  occ. eigenvalues --   -0.52725  -0.52669  -0.52513  -0.52367  -0.52185
 Alpha  occ. eigenvalues --   -0.51888  -0.51649  -0.51403  -0.51150  -0.51011
 Alpha  occ. eigenvalues --   -0.50904  -0.50620  -0.50572  -0.50539  -0.50395
 Alpha  occ. eigenvalues --   -0.50378  -0.50177  -0.50116  -0.50037  -0.49931
 Alpha  occ. eigenvalues --   -0.49403  -0.49194  -0.49156  -0.49079  -0.49071
 Alpha  occ. eigenvalues --   -0.48884  -0.48410  -0.48137  -0.46117  -0.45958
 Alpha  occ. eigenvalues --   -0.45520  -0.44954  -0.44805  -0.43537  -0.41351
 Alpha  occ. eigenvalues --   -0.40786  -0.39020  -0.38748  -0.37451  -0.36557
 Alpha virt. eigenvalues --    0.00024   0.00041   0.05067   0.05763   0.06431
 Alpha virt. eigenvalues --    0.07098   0.09289   0.09802   0.10478   0.13285
 Alpha virt. eigenvalues --    0.14252   0.14948   0.16051   0.16277   0.17118

 Mulliken charges:
               1
     1  O   -0.497283
     2  C    0.856059
     3  N   -0.610384
     4  C   -0.110809
     5  C    0.587024
     6  F   -0.274130
     7  F   -0.271252
     8  C    0.423136
     9  F   -0.272850
    10  O   -0.520501
    11  C    0.997350
    12  F   -0.241679
    13  F   -0.239263
    14  F   -0.241707
    15  C    0.812834
    16  F   -0.244614
    17  F   -0.258716
    18  F   -0.246177
    19  C    0.840823
    20  O   -0.496374
    21  N   -0.645175
    22  C    0.761744
    23  F   -0.254641
    24  F   -0.253974
    25  C    0.437879
    26  F   -0.254125
    27  O   -0.507611
    28  C    0.997110
    29  F   -0.238483
    30  F   -0.241833
    31  F   -0.242328
    32  C    0.814339
    33  F   -0.243465
    34  F   -0.258349
    35  F   -0.245277
    36  C    0.840566
    37  O   -0.471443
    38  N   -0.647930
    39  C    0.759558
    40  F   -0.256714
    41  F   -0.251307
    42  C    0.439086
    43  F   -0.253270
    44  O   -0.508889
    45  C    0.997903
    46  F   -0.237437
    47  F   -0.242991
    48  F   -0.242405
    49  C    0.814182
    50  F   -0.245541
    51  F   -0.243580
    52  F   -0.258325
    53  H    0.192407
    54  H    0.198833
 Sum of Mulliken charges =   0.00000

 Dipole moment (field-independent basis, Debye):
    X=              1.4634    Y=             -0.3578    Z=             -2.1425  Tot=              2.6192
 Quadrupole moment (field-independent basis, Debye-Ang):
   XX=           -279.7965   YY=           -286.7560   ZZ=           -264.3820
   XY=             -1.0882   XZ=             -2.7935   YZ=              2.2443

 Normal termination of Gaussian 09 at Sun Mar  3 17:40:19 2024.
