 Gaussian 09, Revision D.01,
 Gaussian 09:  ES64L-G09RevD.01 24-Apr-2013

 ----------------------------------------------------------------------
 #p CAM-B3LYP/6-31G(d,p) SCRF=(PCM,Solvent=Generic,Read) NoSymm out=wfn
 ----------------------------------------------------------------------

 --------------------
 Title A1374950792_p1
 --------------------
 Symbolic Z-matrix:
 Charge =  1 Multiplicity = 2

                          Input orientation:
 ---------------------------------------------------------------------
 Center     Atomic      Atomic             Coordinates (Angstroms)
 Number     Number       Type             X           Y           Z
 ---------------------------------------------------------------------
      1          8           0        1.775137    1.731027    2.561461
      2          6           0        0.979514    0.836977    2.284650
      3          7           0       -0.184610    0.612725    2.989486
      4         17           0       -0.372326    1.381146    4.542771
      5          6           0       -1.211367   -0.187769    2.522034
      6          8           0       -2.122093   -0.584278    3.246550
      7          7           0       -1.112482   -0.526444    1.182367
      8          6           0       -2.264907   -1.229147    0.614397
      9          9           0       -3.389240   -0.662282    1.140805
     10          9           0       -2.256878   -2.511248    1.070023
     11          6           0       -2.440725   -1.225184   -0.935115
     12          9           0       -1.668358   -2.231250   -1.468463
     13          8           0       -1.946415   -0.043980   -1.588057
     14          6           0       -2.775820    1.081049   -1.469541
     15          9           0       -3.871057    0.933684   -2.222762
     16          9           0       -3.103798    1.263332   -0.183008
     17          9           0       -2.087843    2.157259   -1.887965
     18          6           0       -3.895108   -1.620638   -1.226513
     19          9           0       -4.787981   -0.724289   -0.753058
     20          9           0       -4.107359   -1.708447   -2.563073
     21          9           0       -4.213833   -2.821468   -0.695517
     22          6           0        0.128812   -0.684544    0.622150
     23          8           0        0.315750   -1.395203   -0.355658
     24          7           0        1.169519   -0.000081    1.206714
     25          6           0        2.459085    0.000063    0.524178
     26          9           0        3.449405    0.408508    1.367697
     27          9           0        2.775211   -1.311905    0.303746
     28          6           0        2.587207    0.786668   -0.815716
     29          9           0        1.708814    0.310682   -1.747300
     30          8           0        3.879010    0.785964   -1.441513
     31          6           0        4.393611   -0.499146   -1.669061
     32          9           0        4.971618   -0.945586   -0.541595
     33          9           0        5.333837   -0.417244   -2.628801
     34          9           0        3.438247   -1.350201   -2.069690
     35          6           0        2.212519    2.239240   -0.542280
     36          9           0        3.026513    2.827764    0.355767
     37          9           0        0.938311    2.340651   -0.084687
     38          9           0        2.270083    2.983597   -1.674645
 ---------------------------------------------------------------------

 SCF Done:  E(UCAM-B3LYP) =  -3215.71210836     A.U. after   32 cycles

 Alpha  occ. eigenvalues -- -101.83301 -24.88292 -24.88011 -24.87887 -24.87434
 Alpha  occ. eigenvalues --  -24.87422 -24.86749 -24.86617 -24.86441 -24.86323
 Alpha  occ. eigenvalues --  -24.86197 -24.85852 -24.85674 -24.85650 -24.85441
 Alpha  occ. eigenvalues --  -24.85366 -24.85201 -24.85162 -24.85022 -19.38034
 Alpha  occ. eigenvalues --  -19.37785 -19.36434 -19.35858 -19.31510 -14.72351
 Alpha  occ. eigenvalues --  -14.61187 -14.60984 -10.62707 -10.61620 -10.58845
 Alpha  occ. eigenvalues --  -10.58757 -10.58442 -10.58017 -10.57260 -10.57210
 Alpha  occ. eigenvalues --  -10.53774 -10.52804 -10.52711  -9.74219  -7.51155
 Alpha  occ. eigenvalues --   -7.49949  -7.49317  -1.46556  -1.45649  -1.44972
 Alpha  occ. eigenvalues --   -1.44620  -1.43672  -1.43411  -1.38946  -1.38078
 Alpha  occ. eigenvalues --   -1.37321  -1.36772  -1.36597  -1.36380  -1.36180
 Alpha  occ. eigenvalues --   -1.35492  -1.35194  -1.34915  -1.34824  -1.34716
 Alpha  occ. eigenvalues --   -1.34413  -1.29654  -1.27204  -1.23856  -1.23258
 Alpha  occ. eigenvalues --   -1.23139  -1.17905  -1.16857  -1.06520  -0.97881
 Alpha  occ. eigenvalues --   -0.96980  -0.93725  -0.91765  -0.87624  -0.86484
 Alpha  occ. eigenvalues --   -0.85394  -0.83854  -0.83616  -0.81227  -0.79473
 Alpha  occ. eigenvalues --   -0.77805  -0.76729  -0.75997  -0.74838  -0.74697
 Alpha  occ. eigenvalues --   -0.74143  -0.73901  -0.73258  -0.72840  -0.72583
 Alpha  occ. eigenvalues --   -0.72154  -0.71780  -0.71543  -0.71327  -0.70679
 Alpha  occ. eigenvalues --   -0.70621  -0.69636  -0.69341  -0.68668  -0.67159
 Alpha  occ. eigenvalues --   -0.66852  -0.65336  -0.64518  -0.64095  -0.62616
 Alpha  occ. eigenvalues --   -0.62362  -0.61750  -0.60842  -0.60752  -0.60183
 Alpha  occ. eigenvalues --   -0.60091  -0.59782  -0.59549  -0.59380  -0.59126
 Alpha  occ. eigenvalues --   -0.58554  -0.58342  -0.57940  -0.57557  -0.57452
 Alpha  occ. eigenvalues --   -0.57361  -0.57044  -0.56823  -0.56407  -0.56314
 Alpha  occ. eigenvalues --   -0.55709  -0.55510  -0.55360  -0.55114  -0.54537
 Alpha  occ. eigenvalues --   -0.54230  -0.54068  -0.53861  -0.53718  -0.53645
 Alpha  occ. eigenvalues --   -0.53440  -0.53024  -0.52882  -0.52776  -0.52578
 Alpha  occ. eigenvalues --   -0.52084  -0.51780  -0.51751  -0.51362  -0.51073
 Alpha  occ. eigenvalues --   -0.50988  -0.49739  -0.49207  -0.48659  -0.47436
 Alpha  occ. eigenvalues --   -0.46744  -0.45701  -0.44392
 Alpha virt. eigenvalues --   -0.16426  -0.10250  -0.07786  -0.01480   0.01755
 Alpha virt. eigenvalues --    0.02619   0.03837   0.04475   0.09183   0.10442
 Alpha virt. eigenvalues --    0.11281   0.12413   0.13699   0.14334   0.14937

  Beta  occ. eigenvalues -- -101.83120 -24.88271 -24.88009 -24.87861 -24.87434
  Beta  occ. eigenvalues --  -24.87421 -24.86748 -24.86617 -24.86441 -24.86323
  Beta  occ. eigenvalues --  -24.86198 -24.85852 -24.85674 -24.85650 -24.85438
  Beta  occ. eigenvalues --  -24.85365 -24.85200 -24.85162 -24.85022 -19.37353
  Beta  occ. eigenvalues --  -19.37096 -19.36434 -19.35858 -19.31478 -14.71267
  Beta  occ. eigenvalues --  -14.61205 -14.60996 -10.62707 -10.61620 -10.58845
  Beta  occ. eigenvalues --  -10.58757 -10.58443 -10.58017 -10.57468 -10.57415
  Beta  occ. eigenvalues --  -10.53793 -10.52803 -10.52713  -9.74045  -7.51096
  Beta  occ. eigenvalues --   -7.49335  -7.49211  -1.46554  -1.45644  -1.44970
  Beta  occ. eigenvalues --   -1.44607  -1.43652  -1.43395  -1.38945  -1.38067
  Beta  occ. eigenvalues --   -1.37319  -1.36767  -1.36582  -1.36354  -1.36175
  Beta  occ. eigenvalues --   -1.35491  -1.35185  -1.34913  -1.34803  -1.34426
  Beta  occ. eigenvalues --   -1.33764  -1.28607  -1.26895  -1.23853  -1.23245
  Beta  occ. eigenvalues --   -1.21242  -1.17650  -1.16645  -1.05386  -0.97814
  Beta  occ. eigenvalues --   -0.96916  -0.93369  -0.91732  -0.87362  -0.86274
  Beta  occ. eigenvalues --   -0.85390  -0.83766  -0.83600  -0.81093  -0.79439
  Beta  occ. eigenvalues --   -0.77739  -0.76720  -0.75776  -0.74724  -0.74181
  Beta  occ. eigenvalues --   -0.74133  -0.73831  -0.73143  -0.72589  -0.72208
  Beta  occ. eigenvalues --   -0.71854  -0.71572  -0.71158  -0.71002  -0.70651
  Beta  occ. eigenvalues --   -0.70266  -0.69546  -0.69244  -0.68609  -0.66975
  Beta  occ. eigenvalues --   -0.66190  -0.64589  -0.63424  -0.63363  -0.62313
  Beta  occ. eigenvalues --   -0.62169  -0.61625  -0.60706  -0.60659  -0.60088
  Beta  occ. eigenvalues --   -0.59984  -0.59724  -0.59489  -0.59278  -0.59066
  Beta  occ. eigenvalues --   -0.58453  -0.58261  -0.57736  -0.57529  -0.57383
  Beta  occ. eigenvalues --   -0.57065  -0.56960  -0.56535  -0.56290  -0.55770
  Beta  occ. eigenvalues --   -0.55553  -0.55304  -0.55099  -0.54584  -0.54352
  Beta  occ. eigenvalues --   -0.54085  -0.53823  -0.53740  -0.53625  -0.53429
  Beta  occ. eigenvalues --   -0.53001  -0.52912  -0.52865  -0.52579  -0.52283
  Beta  occ. eigenvalues --   -0.51973  -0.51739  -0.51415  -0.51067  -0.49178
  Beta  occ. eigenvalues --   -0.49099  -0.48323  -0.48203  -0.47064  -0.46611
  Beta  occ. eigenvalues --   -0.45319  -0.44031
  Beta virt. eigenvalues --   -0.31063  -0.15382  -0.09287  -0.06765  -0.00881
  Beta virt. eigenvalues --    0.01796   0.02658   0.03846   0.04587   0.09206
  Beta virt. eigenvalues --    0.10494   0.11611   0.12423   0.13783   0.14318

 Mulliken charges and spin densities:
               1          2
     1  O   -0.329891   0.269791
     2  C    0.907057  -0.116800
     3  N   -0.588368   0.452060
     4  Cl   0.577296   0.233953
     5  C    0.904399  -0.119158
     6  O   -0.317470   0.266641
     7  N   -0.651666   0.000710
     8  C    0.798659  -0.001678
     9  F   -0.256584   0.005646
    10  F   -0.233066   0.000617
    11  C    0.422895   0.000320
    12  F   -0.255198   0.000632
    13  O   -0.500079   0.000021
    14  C    0.982537   0.000006
    15  F   -0.226514   0.000012
    16  F   -0.248767   0.000042
    17  F   -0.231929   0.000006
    18  C    0.819360  -0.000025
    19  F   -0.244959   0.000208
    20  F   -0.247987  -0.000003
    21  F   -0.237757  -0.000001
    22  C    0.891275  -0.007969
    23  O   -0.423566   0.013063
    24  N   -0.651976  -0.002448
    25  C    0.764579  -0.000422
    26  F   -0.233734   0.004282
    27  F   -0.246040   0.000358
    28  C    0.440816  -0.000471
    29  F   -0.248289  -0.000001
    30  O   -0.504121   0.000218
    31  C    1.004660  -0.000012
    32  F   -0.242923   0.000012
    33  F   -0.233783   0.000009
    34  F   -0.238360  -0.000003
    35  C    0.810465  -0.000120
    36  F   -0.230246  -0.000033
    37  F   -0.261053   0.000507
    38  F   -0.239672   0.000030
 Sum of Mulliken charges =   1.00000   1.00000

 Dipole moment (field-independent basis, Debye):
    X=             -1.0511    Y=              3.7031    Z=             14.0870  Tot=             14.6035
 Quadrupole moment (field-independent basis, Debye-Ang):
   XX=           -197.8928   YY=           -198.9731   ZZ=           -148.4061
   XY=             -4.2063   XZ=             -1.9142   YZ=             12.1183

 Normal termination of Gaussian 09 at Sun Mar  3 18:29:24 2024.
