 Gaussian 09, Revision D.01,
 Gaussian 09:  ES64L-G09RevD.01 24-Apr-2013

 ----------------------------------------------------------------------
 #p CAM-B3LYP/6-31G(d,p) SCRF=(PCM,Solvent=Generic,Read) NoSymm out=wfn
 ----------------------------------------------------------------------

 -------------------
 Title A1374950792_0
 -------------------
 Symbolic Z-matrix:
 Charge =  0 Multiplicity = 1

                          Input orientation:
 ---------------------------------------------------------------------
 Center     Atomic      Atomic             Coordinates (Angstroms)
 Number     Number       Type             X           Y           Z
 ---------------------------------------------------------------------
      1          8           0        1.775137    1.731027    2.561461
      2          6           0        0.979514    0.836977    2.284650
      3          7           0       -0.184610    0.612725    2.989486
      4         17           0       -0.372326    1.381146    4.542771
      5          6           0       -1.211367   -0.187769    2.522034
      6          8           0       -2.122093   -0.584278    3.246550
      7          7           0       -1.112482   -0.526444    1.182367
      8          6           0       -2.264907   -1.229147    0.614397
      9          9           0       -3.389240   -0.662282    1.140805
     10          9           0       -2.256878   -2.511248    1.070023
     11          6           0       -2.440725   -1.225184   -0.935115
     12          9           0       -1.668358   -2.231250   -1.468463
     13          8           0       -1.946415   -0.043980   -1.588057
     14          6           0       -2.775820    1.081049   -1.469541
     15          9           0       -3.871057    0.933684   -2.222762
     16          9           0       -3.103798    1.263332   -0.183008
     17          9           0       -2.087843    2.157259   -1.887965
     18          6           0       -3.895108   -1.620638   -1.226513
     19          9           0       -4.787981   -0.724289   -0.753058
     20          9           0       -4.107359   -1.708447   -2.563073
     21          9           0       -4.213833   -2.821468   -0.695517
     22          6           0        0.128812   -0.684544    0.622150
     23          8           0        0.315750   -1.395203   -0.355658
     24          7           0        1.169519   -0.000081    1.206714
     25          6           0        2.459085    0.000063    0.524178
     26          9           0        3.449405    0.408508    1.367697
     27          9           0        2.775211   -1.311905    0.303746
     28          6           0        2.587207    0.786668   -0.815716
     29          9           0        1.708814    0.310682   -1.747300
     30          8           0        3.879010    0.785964   -1.441513
     31          6           0        4.393611   -0.499146   -1.669061
     32          9           0        4.971618   -0.945586   -0.541595
     33          9           0        5.333837   -0.417244   -2.628801
     34          9           0        3.438247   -1.350201   -2.069690
     35          6           0        2.212519    2.239240   -0.542280
     36          9           0        3.026513    2.827764    0.355767
     37          9           0        0.938311    2.340651   -0.084687
     38          9           0        2.270083    2.983597   -1.674645
 ---------------------------------------------------------------------

 SCF Done:  E(RCAM-B3LYP) =  -3216.05384600     A.U. after   13 cycles

 Alpha  occ. eigenvalues -- -101.70290 -24.84795 -24.84596 -24.84383 -24.84150
 Alpha  occ. eigenvalues --  -24.83824 -24.83768 -24.83666 -24.83608 -24.83469
 Alpha  occ. eigenvalues --  -24.83392 -24.83387 -24.83255 -24.83193 -24.83147
 Alpha  occ. eigenvalues --  -24.83134 -24.83042 -24.82787 -24.82592 -19.33700
 Alpha  occ. eigenvalues --  -19.33314 -19.25813 -19.25546 -19.25491 -14.55944
 Alpha  occ. eigenvalues --  -14.54291 -14.54077 -10.60326 -10.59580 -10.55789
 Alpha  occ. eigenvalues --  -10.55708 -10.54408 -10.53988 -10.49697 -10.49478
 Alpha  occ. eigenvalues --  -10.47898 -10.47713 -10.47608  -9.61480  -7.38469
 Alpha  occ. eigenvalues --   -7.36789  -7.36775  -1.44187  -1.43136  -1.42300
 Alpha  occ. eigenvalues --   -1.42094  -1.39652  -1.39589  -1.36024  -1.35124
 Alpha  occ. eigenvalues --   -1.34872  -1.34123  -1.33570  -1.33446  -1.33112
 Alpha  occ. eigenvalues --   -1.33010  -1.32574  -1.32519  -1.32200  -1.32105
 Alpha  occ. eigenvalues --   -1.24756  -1.21163  -1.20740  -1.19564  -1.19093
 Alpha  occ. eigenvalues --   -1.11456  -1.09679  -1.09526  -0.95643  -0.93680
 Alpha  occ. eigenvalues --   -0.93122  -0.86667  -0.85472  -0.82885  -0.81139
 Alpha  occ. eigenvalues --   -0.80982  -0.80264  -0.77117  -0.76690  -0.75688
 Alpha  occ. eigenvalues --   -0.74336  -0.73425  -0.72522  -0.71647  -0.71436
 Alpha  occ. eigenvalues --   -0.70934  -0.70501  -0.70191  -0.69617  -0.69058
 Alpha  occ. eigenvalues --   -0.68848  -0.68421  -0.68109  -0.67552  -0.66809
 Alpha  occ. eigenvalues --   -0.66199  -0.65117  -0.64178  -0.63472  -0.60820
 Alpha  occ. eigenvalues --   -0.60340  -0.59752  -0.58294  -0.58151  -0.57704
 Alpha  occ. eigenvalues --   -0.57637  -0.57360  -0.57116  -0.56936  -0.56814
 Alpha  occ. eigenvalues --   -0.56319  -0.56011  -0.55767  -0.55407  -0.55271
 Alpha  occ. eigenvalues --   -0.55151  -0.54902  -0.54732  -0.54450  -0.54367
 Alpha  occ. eigenvalues --   -0.53936  -0.53830  -0.53528  -0.53342  -0.52898
 Alpha  occ. eigenvalues --   -0.52586  -0.52094  -0.51963  -0.51788  -0.51300
 Alpha  occ. eigenvalues --   -0.51105  -0.50967  -0.50818  -0.50590  -0.50400
 Alpha  occ. eigenvalues --   -0.50120  -0.50042  -0.49683  -0.49365  -0.49244
 Alpha  occ. eigenvalues --   -0.48772  -0.48388  -0.46304  -0.45705  -0.45023
 Alpha  occ. eigenvalues --   -0.44023  -0.43290  -0.41731  -0.40922  -0.40289
 Alpha  occ. eigenvalues --   -0.39499  -0.37592  -0.37043
 Alpha virt. eigenvalues --   -0.05229  -0.00915  -0.00019   0.04879   0.05788
 Alpha virt. eigenvalues --    0.06701   0.07708   0.09453   0.14238   0.15157
 Alpha virt. eigenvalues --    0.16654   0.17563   0.18405   0.19218   0.19560

 Mulliken charges:
               1
     1  O   -0.467877
     2  C    0.856302
     3  N   -0.680797
     4  Cl   0.262412
     5  C    0.851261
     6  O   -0.455247
     7  N   -0.649354
     8  C    0.795636
     9  F   -0.265721
    10  F   -0.248367
    11  C    0.423394
    12  F   -0.262557
    13  O   -0.502887
    14  C    0.979767
    15  F   -0.232520
    16  F   -0.244850
    17  F   -0.235988
    18  C    0.811855
    19  F   -0.247545
    20  F   -0.254949
    21  F   -0.241893
    22  C    0.861092
    23  O   -0.475180
    24  N   -0.649631
    25  C    0.764380
    26  F   -0.242692
    27  F   -0.260737
    28  C    0.433698
    29  F   -0.254883
    30  O   -0.514141
    31  C    1.000468
    32  F   -0.244199
    33  F   -0.239320
    34  F   -0.239849
    35  C    0.809716
    36  F   -0.232714
    37  F   -0.256829
    38  F   -0.249252
 Sum of Mulliken charges =   0.00000

 Dipole moment (field-independent basis, Debye):
    X=             -0.2902    Y=              1.0248    Z=              0.8722  Tot=              1.3766
 Quadrupole moment (field-independent basis, Debye-Ang):
   XX=           -214.5776   YY=           -210.4122   ZZ=           -205.0641
   XY=             -7.7157   XZ=              2.9278   YZ=             -0.4718

 Normal termination of Gaussian 09 at Sun Mar  3 18:27:53 2024.
