 Gaussian 09, Revision D.01,
 Gaussian 09:  ES64L-G09RevD.01 24-Apr-2013

 ----------------------------------------------------------------------
 #p CAM-B3LYP/6-31G(d,p) SCRF=(PCM,Solvent=Generic,Read) NoSymm out=wfn
 ----------------------------------------------------------------------

 --------------
 Title APN2_neu
 --------------
 Symbolic Z-matrix:
 Charge =  0 Multiplicity = 1

                          Input orientation:
 ---------------------------------------------------------------------
 Center     Atomic      Atomic             Coordinates (Angstroms)
 Number     Number       Type             X           Y           Z
 ---------------------------------------------------------------------
      1          9           0       -3.049251    3.125452    1.795696
      2          6           0       -2.891357    1.790674    1.721386
      3          9           0       -2.780529    1.322715    2.985746
      4          6           0       -3.995743    1.088675    0.950795
      5          9           0       -4.337513    1.793428   -0.154818
      6          9           0       -5.120993    0.885461    1.655548
      7          6           0       -3.269238   -0.166273    0.583292
      8          9           0       -3.051645   -0.881493    1.738956
      9          6           0       -4.018043   -1.056284   -0.374862
     10          9           0       -5.197544   -1.420832    0.219358
     11          6           0       -4.261623   -0.456207   -1.758729
     12          8           0       -5.472708    0.120126   -1.904330
     13          8           0       -3.470097   -0.456116   -2.689295
     14          9           0       -3.324153   -2.230815   -0.488620
     15          6           0       -1.944659    0.439843    0.138468
     16          9           0       -2.130679    1.084283   -1.041553
     17          6           0       -0.795118   -0.563967    0.018717
     18          9           0       -0.664009   -1.265200    1.186270
     19          6           0        0.543894    0.105337   -0.339430
     20          7           0        1.630081   -0.707979   -0.007578
     21          6           0        3.000048   -0.447787   -0.216729
     22          6           0        3.906337   -1.421422    0.223938
     23          6           0        5.286221   -1.244974    0.055981
     24          6           0        6.197444   -2.252589    0.513937
     25          7           0        6.928149   -3.072249    0.887460
     26          6           0        5.770389   -0.087800   -0.557152
     27          6           0        4.874118    0.888790   -1.000593
     28          6           0        5.368949    2.078296   -1.631305
     29          7           0        5.786413    3.034242   -2.138898
     30          6           0        3.494164    0.706707   -0.829728
     31          8           0        0.623942    1.194127   -0.898665
     32          9           0       -1.104457   -1.502644   -0.920382
     33          8           0       -1.648646    1.492189    1.084652
     34          1           0       -5.496933    0.456405   -2.826957
     35          1           0        1.397649   -1.583464    0.456867
     36          1           0        3.546016   -2.330587    0.704033
     37          1           0        6.842999    0.054321   -0.690318
     38          1           0        2.828125    1.487612   -1.188646
 ---------------------------------------------------------------------

 SCF Done:  E(RCAM-B3LYP) =  -2075.52075638     A.U. after   14 cycles

 Alpha  occ. eigenvalues --  -24.84300 -24.83901 -24.83695 -24.83311 -24.83282
 Alpha  occ. eigenvalues --  -24.83248 -24.82827 -24.82560 -24.82503 -24.82254
 Alpha  occ. eigenvalues --  -19.32183 -19.30425 -19.25617 -19.25374 -14.49800
 Alpha  occ. eigenvalues --  -14.43295 -14.42992 -10.53069 -10.49572 -10.49477
 Alpha  occ. eigenvalues --  -10.49410 -10.48052 -10.44742 -10.43281 -10.43195
 Alpha  occ. eigenvalues --  -10.36479 -10.34383 -10.34129 -10.32714 -10.32468
 Alpha  occ. eigenvalues --  -10.32397 -10.32103 -10.31629  -1.41096  -1.39256
 Alpha  occ. eigenvalues --   -1.38593  -1.37967  -1.36130  -1.35057  -1.33327
 Alpha  occ. eigenvalues --   -1.32300  -1.32122  -1.31055  -1.22391  -1.20240
 Alpha  occ. eigenvalues --   -1.17204  -1.12618  -1.06979  -1.01538  -1.00639
 Alpha  occ. eigenvalues --   -0.98279  -0.98193  -0.92226  -0.90242  -0.89342
 Alpha  occ. eigenvalues --   -0.88188  -0.83289  -0.79231  -0.78005  -0.77466
 Alpha  occ. eigenvalues --   -0.75945  -0.74504  -0.73207  -0.71630  -0.70953
 Alpha  occ. eigenvalues --   -0.69438  -0.68712  -0.67993  -0.67484  -0.67275
 Alpha  occ. eigenvalues --   -0.66574  -0.65954  -0.65597  -0.64713  -0.63400
 Alpha  occ. eigenvalues --   -0.62953  -0.60689  -0.59029  -0.58806  -0.58661
 Alpha  occ. eigenvalues --   -0.58504  -0.58312  -0.57439  -0.56283  -0.56066
 Alpha  occ. eigenvalues --   -0.55782  -0.55016  -0.54981  -0.54637  -0.54402
 Alpha  occ. eigenvalues --   -0.53921  -0.53720  -0.53397  -0.52684  -0.52622
 Alpha  occ. eigenvalues --   -0.52119  -0.51900  -0.51335  -0.51169  -0.50695
 Alpha  occ. eigenvalues --   -0.50327  -0.49769  -0.49412  -0.48879  -0.48586
 Alpha  occ. eigenvalues --   -0.48480  -0.47398  -0.45776  -0.45521  -0.45267
 Alpha  occ. eigenvalues --   -0.44753  -0.44460  -0.44263  -0.43034  -0.42181
 Alpha  occ. eigenvalues --   -0.41402  -0.41062  -0.39548  -0.38098  -0.37005
 Alpha  occ. eigenvalues --   -0.34272  -0.32092
 Alpha virt. eigenvalues --   -0.03842  -0.03079  -0.00550   0.01233   0.04773
 Alpha virt. eigenvalues --    0.06395   0.07039   0.08120   0.08895   0.10285
 Alpha virt. eigenvalues --    0.10722   0.11234   0.11811   0.13415   0.14995

 Mulliken charges:
               1
     1  F   -0.244222
     2  C    0.782851
     3  F   -0.251129
     4  C    0.526150
     5  F   -0.257819
     6  F   -0.250459
     7  C    0.167135
     8  F   -0.292552
     9  C    0.617275
    10  F   -0.274415
    11  C    0.521873
    12  O   -0.473528
    13  O   -0.444415
    14  F   -0.270596
    15  C    0.498763
    16  F   -0.256854
    17  C    0.544014
    18  F   -0.277061
    19  C    0.607921
    20  N   -0.674349
    21  C    0.336274
    22  C   -0.122449
    23  C    0.103632
    24  C    0.230537
    25  N   -0.455405
    26  C   -0.078375
    27  C    0.090426
    28  C    0.237079
    29  N   -0.455118
    30  C   -0.084872
    31  O   -0.471055
    32  F   -0.259665
    33  O   -0.516155
    34  H    0.362580
    35  H    0.305125
    36  H    0.145161
    37  H    0.156642
    38  H    0.177052
 Sum of Mulliken charges =   0.00000

 Dipole moment (field-independent basis, Debye):
    X=             -4.7701    Y=             -2.0171    Z=              0.5149  Tot=              5.2046
 Quadrupole moment (field-independent basis, Debye-Ang):
   XX=           -203.2044   YY=           -198.2752   ZZ=           -182.6183
   XY=             -5.4022   XZ=             13.4867   YZ=              8.0794

 Normal termination of Gaussian 09 at Mon Feb  3 21:57:17 2025.
