 Gaussian 09, Revision D.01,
 Gaussian 09:  ES64L-G09RevD.01 24-Apr-2013

 ----------------------------------------------------------------------
 #p CAM-B3LYP/6-31G(d,p) SCRF=(PCM,Solvent=Generic,Read) NoSymm out=wfn
 ----------------------------------------------------------------------

 --------------------
 Title A1639138550_p1
 --------------------
 Symbolic Z-matrix:
 Charge =  1 Multiplicity = 2

                          Input orientation:
 ---------------------------------------------------------------------
 Center     Atomic      Atomic             Coordinates (Angstroms)
 Number     Number       Type             X           Y           Z
 ---------------------------------------------------------------------
      1          6           0       -2.092643   -2.729316    1.833640
      2          6           0       -1.906244   -2.189104    0.413790
      3          6           0       -1.320765   -3.251337   -0.522746
      4          7           0       -1.149100   -0.917118    0.399647
      5          6           0       -1.875029    0.251242    0.249034
      6          8           0       -3.104722    0.263366    0.305273
      7          7           0       -1.133211    1.396821    0.038108
      8          6           0       -1.815788    2.655921   -0.335670
      9          6           0       -2.681131    2.519369   -1.592447
     10          6           0       -2.608057    3.245641    0.834011
     11          6           0        0.215960    1.453495    0.319173
     12          8           0        0.879090    2.467675    0.108937
     13          7           0        0.793592    0.322152    0.828336
     14          6           0        2.199155    0.371436    1.218491
     15          9           0        2.348822   -0.449432    2.312376
     16          9           0        2.498813    1.597804    1.741280
     17          6           0        3.285076   -0.030865    0.180020
     18          9           0        4.492158   -0.027850    0.835003
     19          8           0        3.073378   -1.380289   -0.246488
     20          6           0        3.960604   -1.812522   -1.240889
     21          9           0        3.524528   -1.365085   -2.431567
     22          9           0        3.960618   -3.158055   -1.266191
     23          9           0        5.210495   -1.381168   -1.016140
     24          6           0        3.320840    1.022775   -0.928533
     25          9           0        3.482091    2.277163   -0.465910
     26          9           0        2.189457    0.979071   -1.672087
     27          9           0        4.347158    0.807044   -1.787619
     28          6           0        0.183207   -0.904724    0.760386
     29          8           0        0.793386   -1.941652    1.011787
     30          1           0       -2.747271   -3.607308    1.828923
     31          1           0       -2.548911   -1.971266    2.479350
     32          1           0       -1.142997   -3.025306    2.289720
     33          1           0       -2.911767   -1.989115    0.023217
     34          1           0       -0.379341   -3.668718   -0.155548
     35          1           0       -2.020805   -4.087166   -0.631518
     36          1           0       -1.139563   -2.832132   -1.518227
     37          1           0       -1.051301    3.399735   -0.589852
     38          1           0       -2.108250    2.065698   -2.408318
     39          1           0       -3.022490    3.504899   -1.927796
     40          1           0       -3.572638    1.908151   -1.426925
     41          1           0       -1.967300    3.363236    1.714595
     42          1           0       -3.454381    2.614711    1.121188
     43          1           0       -3.004721    4.232125    0.571140
 ---------------------------------------------------------------------

 SCF Done:  E(UCAM-B3LYP) =  -1866.66648705     A.U. after   53 cycles

 Alpha  occ. eigenvalues --  -24.86578 -24.86543 -24.85737 -24.85633 -24.85533
 Alpha  occ. eigenvalues --  -24.85402 -24.85294 -24.85210 -24.85052 -19.35621
 Alpha  occ. eigenvalues --  -19.33719 -19.31996 -19.30949 -14.63635 -14.59931
 Alpha  occ. eigenvalues --  -14.58908 -10.61665 -10.58068 -10.57424 -10.53506
 Alpha  occ. eigenvalues --  -10.52630 -10.52067 -10.51975 -10.39432 -10.37597
 Alpha  occ. eigenvalues --  -10.31453 -10.30709 -10.29920 -10.29879  -1.45325
 Alpha  occ. eigenvalues --   -1.44212  -1.42279  -1.37712  -1.35746  -1.35361
 Alpha  occ. eigenvalues --   -1.35232  -1.34719  -1.34316  -1.30630  -1.25714
 Alpha  occ. eigenvalues --   -1.24794  -1.23213  -1.17635  -1.15038  -1.14209
 Alpha  occ. eigenvalues --   -0.97468  -0.95750  -0.93984  -0.89640  -0.86500
 Alpha  occ. eigenvalues --   -0.85304  -0.84229  -0.83132  -0.82002  -0.81685
 Alpha  occ. eigenvalues --   -0.80418  -0.77731  -0.75449  -0.74894  -0.74028
 Alpha  occ. eigenvalues --   -0.73056  -0.71847  -0.71728  -0.70781  -0.70295
 Alpha  occ. eigenvalues --   -0.68951  -0.68294  -0.67819  -0.65090  -0.63721
 Alpha  occ. eigenvalues --   -0.63395  -0.62826  -0.62006  -0.61372  -0.60784
 Alpha  occ. eigenvalues --   -0.60359  -0.59737  -0.59209  -0.58579  -0.58193
 Alpha  occ. eigenvalues --   -0.57849  -0.57383  -0.57109  -0.56516  -0.56213
 Alpha  occ. eigenvalues --   -0.55571  -0.55318  -0.54734  -0.54202  -0.54166
 Alpha  occ. eigenvalues --   -0.53759  -0.53355  -0.53023  -0.52811  -0.51955
 Alpha  occ. eigenvalues --   -0.51933  -0.51654  -0.51125  -0.50732  -0.50266
 Alpha  occ. eigenvalues --   -0.49575  -0.49131  -0.48700  -0.48005  -0.47730
 Alpha  occ. eigenvalues --   -0.47348  -0.46724  -0.45761  -0.45205  -0.44866
 Alpha  occ. eigenvalues --   -0.44133  -0.43286  -0.43066
 Alpha virt. eigenvalues --   -0.06463  -0.05914   0.02707   0.02823   0.04871
 Alpha virt. eigenvalues --    0.08395   0.09558   0.10454   0.10898   0.12509
 Alpha virt. eigenvalues --    0.14021   0.14684   0.15202   0.15926   0.16397

  Beta  occ. eigenvalues --  -24.86576 -24.86539 -24.85737 -24.85629 -24.85533
  Beta  occ. eigenvalues --  -24.85402 -24.85294 -24.85210 -24.85052 -19.35616
  Beta  occ. eigenvalues --  -19.33127 -19.31854 -19.30662 -14.62655 -14.59397
  Beta  occ. eigenvalues --  -14.58960 -10.61665 -10.58068 -10.57423 -10.53704
  Beta  occ. eigenvalues --  -10.52740 -10.52078 -10.52069 -10.39405 -10.37588
  Beta  occ. eigenvalues --  -10.31335 -10.30657 -10.29858 -10.29838  -1.45324
  Beta  occ. eigenvalues --   -1.44211  -1.42274  -1.37712  -1.35743  -1.35360
  Beta  occ. eigenvalues --   -1.35232  -1.34709  -1.34313  -1.29925  -1.24987
  Beta  occ. eigenvalues --   -1.24312  -1.23193  -1.16531  -1.14244  -1.13156
  Beta  occ. eigenvalues --   -0.97365  -0.95491  -0.93664  -0.89500  -0.86276
  Beta  occ. eigenvalues --   -0.85159  -0.84069  -0.82695  -0.81765  -0.81399
  Beta  occ. eigenvalues --   -0.80287  -0.77615  -0.75406  -0.74797  -0.73817
  Beta  occ. eigenvalues --   -0.73001  -0.71820  -0.71708  -0.70753  -0.69522
  Beta  occ. eigenvalues --   -0.68840  -0.67807  -0.67399  -0.64737  -0.63205
  Beta  occ. eigenvalues --   -0.63143  -0.62222  -0.60994  -0.60286  -0.60174
  Beta  occ. eigenvalues --   -0.60019  -0.59586  -0.59124  -0.58543  -0.58139
  Beta  occ. eigenvalues --   -0.57699  -0.57153  -0.56870  -0.56460  -0.56010
  Beta  occ. eigenvalues --   -0.55417  -0.55274  -0.54509  -0.54139  -0.53808
  Beta  occ. eigenvalues --   -0.53516  -0.53089  -0.52966  -0.52442  -0.51903
  Beta  occ. eigenvalues --   -0.51876  -0.51323  -0.51102  -0.50300  -0.50096
  Beta  occ. eigenvalues --   -0.49084  -0.48925  -0.48031  -0.47419  -0.47032
  Beta  occ. eigenvalues --   -0.46868  -0.46013  -0.44636  -0.43838  -0.43126
  Beta  occ. eigenvalues --   -0.42490  -0.41016
  Beta virt. eigenvalues --   -0.28290  -0.06153  -0.04453   0.02716   0.03448
  Beta virt. eigenvalues --    0.05391   0.08596   0.09842   0.10485   0.10980
  Beta virt. eigenvalues --    0.12677   0.14121   0.14775   0.15391   0.16059

 Mulliken charges and spin densities:
               1          2
     1  C   -0.322530   0.063488
     2  C   -0.012865   0.005500
     3  C   -0.334294   0.026180
     4  N   -0.470537   0.449938
     5  C    0.866521  -0.072728
     6  O   -0.425434   0.057891
     7  N   -0.526354   0.245722
     8  C    0.001517  -0.000169
     9  C   -0.338429   0.017219
    10  C   -0.321409   0.031882
    11  C    0.875601  -0.059221
    12  O   -0.432774   0.113114
    13  N   -0.641992  -0.014392
    14  C    0.743555  -0.000837
    15  F   -0.255238   0.000934
    16  F   -0.237573   0.000848
    17  C    0.443948  -0.000608
    18  F   -0.257710  -0.000065
    19  O   -0.510594   0.001067
    20  C    1.001100   0.000015
    21  F   -0.246803  -0.000004
    22  F   -0.234625   0.000002
    23  F   -0.237529   0.000128
    24  C    0.819104  -0.000055
    25  F   -0.231040   0.000031
    26  F   -0.252893   0.000467
    27  F   -0.248847   0.000015
    28  C    0.891541  -0.113820
    29  O   -0.381826   0.233560
    30  H    0.174061   0.002225
    31  H    0.151308  -0.001761
    32  H    0.162867  -0.001768
    33  H    0.210817   0.002414
    34  H    0.164573  -0.001024
    35  H    0.166235   0.002309
    36  H    0.145463   0.002788
    37  H    0.201189   0.001783
    38  H    0.138031   0.001678
    39  H    0.161492   0.005339
    40  H    0.153160   0.000077
    41  H    0.137743  -0.000835
    42  H    0.152011  -0.001242
    43  H    0.159456   0.001915
 Sum of Mulliken charges =   1.00000   1.00000

 Dipole moment (field-independent basis, Debye):
    X=             -7.5234    Y=             -0.8855    Z=              0.6561  Tot=              7.6037
 Quadrupole moment (field-independent basis, Debye-Ang):
   XX=           -145.1165   YY=           -131.0765   ZZ=           -151.1885
   XY=             -1.1610   XZ=             -2.2356   YZ=             -2.7990

 Normal termination of Gaussian 09 at Sun Mar  3 17:34:35 2024.
