 Gaussian 09, Revision D.01,
 Gaussian 09:  ES64L-G09RevD.01 24-Apr-2013

 ----------------------------------------------------------------------
 #p CAM-B3LYP/6-31G(d,p) SCRF=(PCM,Solvent=Generic,Read) NoSymm out=wfn
 ----------------------------------------------------------------------

 -------------------
 Title A1639138550_0
 -------------------
 Symbolic Z-matrix:
 Charge =  0 Multiplicity = 1

                          Input orientation:
 ---------------------------------------------------------------------
 Center     Atomic      Atomic             Coordinates (Angstroms)
 Number     Number       Type             X           Y           Z
 ---------------------------------------------------------------------
      1          6           0       -2.092643   -2.729316    1.833640
      2          6           0       -1.906244   -2.189104    0.413790
      3          6           0       -1.320765   -3.251337   -0.522746
      4          7           0       -1.149100   -0.917118    0.399647
      5          6           0       -1.875029    0.251242    0.249034
      6          8           0       -3.104722    0.263366    0.305273
      7          7           0       -1.133211    1.396821    0.038108
      8          6           0       -1.815788    2.655921   -0.335670
      9          6           0       -2.681131    2.519369   -1.592447
     10          6           0       -2.608057    3.245641    0.834011
     11          6           0        0.215960    1.453495    0.319173
     12          8           0        0.879090    2.467675    0.108937
     13          7           0        0.793592    0.322152    0.828336
     14          6           0        2.199155    0.371436    1.218491
     15          9           0        2.348822   -0.449432    2.312376
     16          9           0        2.498813    1.597804    1.741280
     17          6           0        3.285076   -0.030865    0.180020
     18          9           0        4.492158   -0.027850    0.835003
     19          8           0        3.073378   -1.380289   -0.246488
     20          6           0        3.960604   -1.812522   -1.240889
     21          9           0        3.524528   -1.365085   -2.431567
     22          9           0        3.960618   -3.158055   -1.266191
     23          9           0        5.210495   -1.381168   -1.016140
     24          6           0        3.320840    1.022775   -0.928533
     25          9           0        3.482091    2.277163   -0.465910
     26          9           0        2.189457    0.979071   -1.672087
     27          9           0        4.347158    0.807044   -1.787619
     28          6           0        0.183207   -0.904724    0.760386
     29          8           0        0.793386   -1.941652    1.011787
     30          1           0       -2.747271   -3.607308    1.828923
     31          1           0       -2.548911   -1.971266    2.479350
     32          1           0       -1.142997   -3.025306    2.289720
     33          1           0       -2.911767   -1.989115    0.023217
     34          1           0       -0.379341   -3.668718   -0.155548
     35          1           0       -2.020805   -4.087166   -0.631518
     36          1           0       -1.139563   -2.832132   -1.518227
     37          1           0       -1.051301    3.399735   -0.589852
     38          1           0       -2.108250    2.065698   -2.408318
     39          1           0       -3.022490    3.504899   -1.927796
     40          1           0       -3.572638    1.908151   -1.426925
     41          1           0       -1.967300    3.363236    1.714595
     42          1           0       -3.454381    2.614711    1.121188
     43          1           0       -3.004721    4.232125    0.571140
 ---------------------------------------------------------------------

 SCF Done:  E(RCAM-B3LYP) =  -1866.98051465     A.U. after   13 cycles

 Alpha  occ. eigenvalues --  -24.83442 -24.83431 -24.83277 -24.82977 -24.82971
 Alpha  occ. eigenvalues --  -24.82623 -24.82474 -24.82457 -24.81431 -19.32540
 Alpha  occ. eigenvalues --  -19.22635 -19.22627 -19.22624 -14.52020 -14.49152
 Alpha  occ. eigenvalues --  -14.49052 -10.59265 -10.55220 -10.52941 -10.48723
 Alpha  occ. eigenvalues --  -10.44652 -10.44637 -10.43720 -10.31755 -10.31755
 Alpha  occ. eigenvalues --  -10.25417 -10.25330 -10.25329 -10.25254  -1.42965
 Alpha  occ. eigenvalues --   -1.41552  -1.38265  -1.34876  -1.33180  -1.33004
 Alpha  occ. eigenvalues --   -1.32743  -1.31977  -1.30545  -1.21432  -1.20210
 Alpha  occ. eigenvalues --   -1.16348  -1.16196  -1.08365  -1.06082  -1.04479
 Alpha  occ. eigenvalues --   -0.93231  -0.89097  -0.87299  -0.83576  -0.81754
 Alpha  occ. eigenvalues --   -0.78810  -0.77968  -0.77305  -0.77185  -0.75892
 Alpha  occ. eigenvalues --   -0.73618  -0.72997  -0.72007  -0.70704  -0.70028
 Alpha  occ. eigenvalues --   -0.69222  -0.68323  -0.67495  -0.67123  -0.65986
 Alpha  occ. eigenvalues --   -0.65117  -0.63708  -0.61000  -0.59405  -0.58182
 Alpha  occ. eigenvalues --   -0.57479  -0.56850  -0.56515  -0.56020  -0.55635
 Alpha  occ. eigenvalues --   -0.55394  -0.54894  -0.54406  -0.53867  -0.53389
 Alpha  occ. eigenvalues --   -0.53250  -0.52981  -0.52640  -0.52618  -0.51870
 Alpha  occ. eigenvalues --   -0.51642  -0.51252  -0.50831  -0.50625  -0.50411
 Alpha  occ. eigenvalues --   -0.49940  -0.49725  -0.49213  -0.48782  -0.48398
 Alpha  occ. eigenvalues --   -0.47729  -0.47385  -0.45985  -0.45562  -0.45233
 Alpha  occ. eigenvalues --   -0.44930  -0.44826  -0.44134  -0.42191  -0.41715
 Alpha  occ. eigenvalues --   -0.41547  -0.40991  -0.38280  -0.37251  -0.36987
 Alpha  occ. eigenvalues --   -0.35756  -0.34990  -0.34364
 Alpha virt. eigenvalues --    0.01697   0.02628   0.06727   0.07814   0.11895
 Alpha virt. eigenvalues --    0.13707   0.14670   0.15219   0.15584   0.17949
 Alpha virt. eigenvalues --    0.19178   0.19254   0.19705   0.20291   0.20521

 Mulliken charges:
               1
     1  C   -0.321290
     2  C    0.049066
     3  C   -0.323161
     4  N   -0.575373
     5  C    0.824289
     6  O   -0.515961
     7  N   -0.576998
     8  C    0.045305
     9  C   -0.329076
    10  C   -0.317323
    11  C    0.834110
    12  O   -0.518053
    13  N   -0.635798
    14  C    0.742734
    15  F   -0.266690
    16  F   -0.250836
    17  C    0.434170
    18  F   -0.270144
    19  O   -0.499755
    20  C    0.994620
    21  F   -0.249573
    22  F   -0.238970
    23  F   -0.243166
    24  C    0.816669
    25  F   -0.235292
    26  F   -0.250351
    27  F   -0.257296
    28  C    0.844108
    29  O   -0.505606
    30  H    0.121711
    31  H    0.116364
    32  H    0.132582
    33  H    0.154935
    34  H    0.138618
    35  H    0.119042
    36  H    0.111372
    37  H    0.160005
    38  H    0.114421
    39  H    0.122244
    40  H    0.135693
    41  H    0.113816
    42  H    0.133708
    43  H    0.121128
 Sum of Mulliken charges =   0.00000

 Dipole moment (field-independent basis, Debye):
    X=             -3.1510    Y=             -0.0667    Z=             -1.0778  Tot=              3.3309
 Quadrupole moment (field-independent basis, Debye-Ang):
   XX=           -169.2648   YY=           -159.0639   ZZ=           -160.2661
   XY=             -1.2235   XZ=             -1.1687   YZ=              0.8386

 Normal termination of Gaussian 09 at Sun Mar  3 17:31:41 2024.
