 Gaussian 09, Revision D.01,
 Gaussian 09:  ES64L-G09RevD.01 24-Apr-2013

 ----------------------------------------------------------------------
 #p CAM-B3LYP/6-31G(d,p) SCRF=(PCM,Solvent=Generic,Read) NoSymm out=wfn
 ----------------------------------------------------------------------

 -------------------
 Title A1342961130_0
 -------------------
 Symbolic Z-matrix:
 Charge =  0 Multiplicity = 1

                          Input orientation:
 ---------------------------------------------------------------------
 Center     Atomic      Atomic             Coordinates (Angstroms)
 Number     Number       Type             X           Y           Z
 ---------------------------------------------------------------------
      1          6           0       -1.161825   -4.100585    1.232497
      2          7           0       -0.845354   -2.681714    1.225797
      3          6           0        0.455213   -2.300007    0.992306
      4          8           0        1.367859   -3.109506    0.839330
      5          7           0        0.681880   -0.942431    0.920564
      6          6           0        2.029109   -0.485320    0.542146
      7          6           0        2.231003   -0.455311   -0.983436
      8          9           0        2.260829   -1.727748   -1.461447
      9          9           0        1.116988    0.103435   -1.550095
     10          6           0        3.466322    0.322975   -1.463451
     11          9           0        3.464919    0.296106   -2.831040
     12          8           0        3.302051    1.694126   -1.080464
     13          6           0        4.420828    2.488253   -1.385092
     14          9           0        5.349510    2.304489   -0.430593
     15          9           0        4.047149    3.780342   -1.376506
     16          9           0        4.932992    2.186334   -2.587097
     17          6           0        4.719890   -0.387025   -0.929733
     18          9           0        4.800487   -0.263759    0.417875
     19          9           0        4.736635   -1.705809   -1.210412
     20          9           0        5.857321    0.136894   -1.437616
     21          6           0       -0.318484   -0.000971    1.025393
     22          8           0       -0.086157    1.190373    0.825211
     23          7           0       -1.567813   -0.458366    1.343381
     24          6           0       -2.660142    0.497716    1.435809
     25          9           0       -3.515713    0.045036    2.411506
     26          9           0       -2.206682    1.667705    1.962722
     27          6           0       -3.499102    0.754682    0.148550
     28          9           0       -3.585036   -0.428046   -0.556227
     29          8           0       -4.882185    1.056097    0.404566
     30          6           0       -5.115513    2.348565    0.898694
     31          9           0       -6.393614    2.430104    1.312031
     32          9           0       -4.919070    3.249247   -0.076416
     33          9           0       -4.308202    2.615719    1.932486
     34          6           0       -2.769388    1.738536   -0.764897
     35          9           0       -2.481664    2.907319   -0.159303
     36          9           0       -3.527274    2.030440   -1.852646
     37          9           0       -1.617419    1.215194   -1.238649
     38          6           0       -1.897099   -1.791726    1.303013
     39          8           0       -3.064027   -2.181568    1.314921
     40          1           0       -1.558306   -4.368888    0.246201
     41          1           0       -1.925738   -4.309542    1.989127
     42          1           0       -0.279396   -4.715360    1.439610
     43          1           0        2.186448    0.512255    0.965861
     44          1           0        2.757769   -1.158260    1.005103
 ---------------------------------------------------------------------

 SCF Done:  E(RCAM-B3LYP) =  -2835.13492620     A.U. after   13 cycles

 Alpha  occ. eigenvalues --  -24.84192 -24.83996 -24.83838 -24.83832 -24.83552
 Alpha  occ. eigenvalues --  -24.83551 -24.83544 -24.83458 -24.83349 -24.83307
 Alpha  occ. eigenvalues --  -24.83133 -24.83068 -24.82544 -24.82489 -24.82389
 Alpha  occ. eigenvalues --  -24.81783 -24.81360 -24.81037 -19.33050 -19.32969
 Alpha  occ. eigenvalues --  -19.23530 -19.23455 -19.23176 -14.52776 -14.51012
 Alpha  occ. eigenvalues --  -14.50239 -10.59642 -10.59586 -10.55739 -10.55173
 Alpha  occ. eigenvalues --  -10.53055 -10.48992 -10.48117 -10.47582 -10.45597
 Alpha  occ. eigenvalues --  -10.45347 -10.44557 -10.34572 -10.31021  -1.43426
 Alpha  occ. eigenvalues --   -1.43328  -1.42206  -1.41664  -1.38580  -1.37261
 Alpha  occ. eigenvalues --   -1.35281  -1.34853  -1.33942  -1.33539  -1.33419
 Alpha  occ. eigenvalues --   -1.33412  -1.33296  -1.32725  -1.32650  -1.32026
 Alpha  occ. eigenvalues --   -1.30991  -1.30081  -1.22290  -1.20465  -1.20409
 Alpha  occ. eigenvalues --   -1.17158  -1.17034  -1.09190  -1.07175  -1.05792
 Alpha  occ. eigenvalues --   -0.94151  -0.92901  -0.87919  -0.84686  -0.83388
 Alpha  occ. eigenvalues --   -0.82565  -0.82281  -0.80039  -0.78251  -0.76861
 Alpha  occ. eigenvalues --   -0.75332  -0.74859  -0.73658  -0.73265  -0.72950
 Alpha  occ. eigenvalues --   -0.71622  -0.71112  -0.70932  -0.70445  -0.70058
 Alpha  occ. eigenvalues --   -0.69655  -0.68839  -0.68777  -0.68470  -0.67479
 Alpha  occ. eigenvalues --   -0.66930  -0.65965  -0.64924  -0.64276  -0.63859
 Alpha  occ. eigenvalues --   -0.63593  -0.61757  -0.59869  -0.59511  -0.58515
 Alpha  occ. eigenvalues --   -0.57830  -0.57388  -0.57207  -0.57136  -0.56970
 Alpha  occ. eigenvalues --   -0.56532  -0.56112  -0.56086  -0.55904  -0.55644
 Alpha  occ. eigenvalues --   -0.55392  -0.55108  -0.54944  -0.54655  -0.54339
 Alpha  occ. eigenvalues --   -0.54234  -0.54008  -0.53543  -0.53362  -0.53212
 Alpha  occ. eigenvalues --   -0.52877  -0.52336  -0.52225  -0.51934  -0.51838
 Alpha  occ. eigenvalues --   -0.51660  -0.51310  -0.51139  -0.50952  -0.50675
 Alpha  occ. eigenvalues --   -0.50527  -0.50433  -0.49911  -0.49735  -0.49722
 Alpha  occ. eigenvalues --   -0.49413  -0.49137  -0.48723  -0.48391  -0.48247
 Alpha  occ. eigenvalues --   -0.47815  -0.47547  -0.47286  -0.47023  -0.45207
 Alpha  occ. eigenvalues --   -0.43790  -0.43622  -0.39660  -0.39491  -0.38274
 Alpha  occ. eigenvalues --   -0.36811  -0.35976  -0.35459
 Alpha virt. eigenvalues --    0.01199   0.01801   0.05785   0.06890   0.07377
 Alpha virt. eigenvalues --    0.08565   0.11849   0.14522   0.14970   0.15433
 Alpha virt. eigenvalues --    0.15854   0.17334   0.17756   0.18662   0.18769

 Mulliken charges:
               1
     1  C   -0.185543
     2  N   -0.571979
     3  C    0.826547
     4  O   -0.517590
     5  N   -0.590272
     6  C   -0.123580
     7  C    0.592269
     8  F   -0.268933
     9  F   -0.282109
    10  C    0.412328
    11  F   -0.272958
    12  O   -0.511041
    13  C    0.995248
    14  F   -0.247493
    15  F   -0.237299
    16  F   -0.240374
    17  C    0.806722
    18  F   -0.246722
    19  F   -0.236616
    20  F   -0.251299
    21  C    0.846026
    22  O   -0.511638
    23  N   -0.629746
    24  C    0.761642
    25  F   -0.274180
    26  F   -0.249049
    27  C    0.435125
    28  F   -0.271218
    29  O   -0.496657
    30  C    0.978173
    31  F   -0.238075
    32  F   -0.240936
    33  F   -0.235266
    34  C    0.817485
    35  F   -0.244887
    36  F   -0.259845
    37  F   -0.241224
    38  C    0.840682
    39  O   -0.505443
    40  H    0.159670
    41  H    0.160599
    42  H    0.168672
    43  H    0.191888
    44  H    0.188894
 Sum of Mulliken charges =   0.00000

 Dipole moment (field-independent basis, Debye):
    X=              1.7333    Y=             -1.7039    Z=              1.9070  Tot=              3.0893
 Quadrupole moment (field-independent basis, Debye-Ang):
   XX=           -216.5893   YY=           -205.2769   ZZ=           -204.7425
   XY=              3.2135   XZ=              4.2949   YZ=             -3.4325

 Normal termination of Gaussian 09 at Sun Mar  3 17:45:55 2024.
