 Gaussian 09, Revision D.01,
 Gaussian 09:  ES64L-G09RevD.01 24-Apr-2013

 ----------------------------------------------------------------------
 #p CAM-B3LYP/6-31G(d,p) SCRF=(PCM,Solvent=Generic,Read) NoSymm out=wfn
 ----------------------------------------------------------------------

 --------------------
 Title A1342961130_p1
 --------------------
 Symbolic Z-matrix:
 Charge =  1 Multiplicity = 2

                          Input orientation:
 ---------------------------------------------------------------------
 Center     Atomic      Atomic             Coordinates (Angstroms)
 Number     Number       Type             X           Y           Z
 ---------------------------------------------------------------------
      1          6           0       -1.161825   -4.100585    1.232497
      2          7           0       -0.845354   -2.681714    1.225797
      3          6           0        0.455213   -2.300007    0.992306
      4          8           0        1.367859   -3.109506    0.839330
      5          7           0        0.681880   -0.942431    0.920564
      6          6           0        2.029109   -0.485320    0.542146
      7          6           0        2.231003   -0.455311   -0.983436
      8          9           0        2.260829   -1.727748   -1.461447
      9          9           0        1.116988    0.103435   -1.550095
     10          6           0        3.466322    0.322975   -1.463451
     11          9           0        3.464919    0.296106   -2.831040
     12          8           0        3.302051    1.694126   -1.080464
     13          6           0        4.420828    2.488253   -1.385092
     14          9           0        5.349510    2.304489   -0.430593
     15          9           0        4.047149    3.780342   -1.376506
     16          9           0        4.932992    2.186334   -2.587097
     17          6           0        4.719890   -0.387025   -0.929733
     18          9           0        4.800487   -0.263759    0.417875
     19          9           0        4.736635   -1.705809   -1.210412
     20          9           0        5.857321    0.136894   -1.437616
     21          6           0       -0.318484   -0.000971    1.025393
     22          8           0       -0.086157    1.190373    0.825211
     23          7           0       -1.567813   -0.458366    1.343381
     24          6           0       -2.660142    0.497716    1.435809
     25          9           0       -3.515713    0.045036    2.411506
     26          9           0       -2.206682    1.667705    1.962722
     27          6           0       -3.499102    0.754682    0.148550
     28          9           0       -3.585036   -0.428046   -0.556227
     29          8           0       -4.882185    1.056097    0.404566
     30          6           0       -5.115513    2.348565    0.898694
     31          9           0       -6.393614    2.430104    1.312031
     32          9           0       -4.919070    3.249247   -0.076416
     33          9           0       -4.308202    2.615719    1.932486
     34          6           0       -2.769388    1.738536   -0.764897
     35          9           0       -2.481664    2.907319   -0.159303
     36          9           0       -3.527274    2.030440   -1.852646
     37          9           0       -1.617419    1.215194   -1.238649
     38          6           0       -1.897099   -1.791726    1.303013
     39          8           0       -3.064027   -2.181568    1.314921
     40          1           0       -1.558306   -4.368888    0.246201
     41          1           0       -1.925738   -4.309542    1.989127
     42          1           0       -0.279396   -4.715360    1.439610
     43          1           0        2.186448    0.512255    0.965861
     44          1           0        2.757769   -1.158260    1.005103
 ---------------------------------------------------------------------

 SCF Done:  E(UCAM-B3LYP) =  -2834.80138563     A.U. after   77 cycles

 Alpha  occ. eigenvalues --  -24.86995 -24.86838 -24.86733 -24.86578 -24.86324
 Alpha  occ. eigenvalues --  -24.86227 -24.86168 -24.86133 -24.85874 -24.85605
 Alpha  occ. eigenvalues --  -24.85468 -24.85463 -24.85374 -24.85320 -24.85285
 Alpha  occ. eigenvalues --  -24.85163 -24.85051 -24.84969 -19.43930 -19.35783
 Alpha  occ. eigenvalues --  -19.35474 -19.33805 -19.33268 -14.61295 -14.60208
 Alpha  occ. eigenvalues --  -14.60178 -10.61773 -10.61550 -10.58261 -10.58102
 Alpha  occ. eigenvalues --  -10.57749 -10.56730 -10.53855 -10.53748 -10.52483
 Alpha  occ. eigenvalues --  -10.52296 -10.51231 -10.41002 -10.37193  -1.45637
 Alpha  occ. eigenvalues --   -1.45396  -1.44427  -1.44412  -1.42893  -1.41544
 Alpha  occ. eigenvalues --   -1.38744  -1.37601  -1.36112  -1.35977  -1.35918
 Alpha  occ. eigenvalues --   -1.35431  -1.35337  -1.35333  -1.35019  -1.34977
 Alpha  occ. eigenvalues --   -1.34748  -1.34550  -1.34444  -1.29411  -1.26178
 Alpha  occ. eigenvalues --   -1.23112  -1.22948  -1.19444  -1.16152  -1.15077
 Alpha  occ. eigenvalues --   -0.98449  -0.96819  -0.93578  -0.91541  -0.91076
 Alpha  occ. eigenvalues --   -0.86815  -0.85048  -0.84600  -0.84147  -0.83120
 Alpha  occ. eigenvalues --   -0.81785  -0.79328  -0.78146  -0.76547  -0.75588
 Alpha  occ. eigenvalues --   -0.75279  -0.74272  -0.73985  -0.73144  -0.72624
 Alpha  occ. eigenvalues --   -0.72174  -0.71826  -0.71770  -0.71214  -0.71113
 Alpha  occ. eigenvalues --   -0.70996  -0.70609  -0.69732  -0.68990  -0.68621
 Alpha  occ. eigenvalues --   -0.68417  -0.67559  -0.67130  -0.65378  -0.64333
 Alpha  occ. eigenvalues --   -0.64102  -0.63265  -0.62725  -0.61983  -0.61468
 Alpha  occ. eigenvalues --   -0.61398  -0.60257  -0.59993  -0.59977  -0.59428
 Alpha  occ. eigenvalues --   -0.59352  -0.58853  -0.58561  -0.58425  -0.58264
 Alpha  occ. eigenvalues --   -0.57979  -0.57773  -0.57665  -0.57433  -0.57049
 Alpha  occ. eigenvalues --   -0.56791  -0.56648  -0.56226  -0.55613  -0.55216
 Alpha  occ. eigenvalues --   -0.54964  -0.54817  -0.54699  -0.54615  -0.54414
 Alpha  occ. eigenvalues --   -0.54329  -0.53754  -0.53646  -0.53372  -0.53188
 Alpha  occ. eigenvalues --   -0.53004  -0.52879  -0.52696  -0.52159  -0.52096
 Alpha  occ. eigenvalues --   -0.51734  -0.51475  -0.51315  -0.51235  -0.50714
 Alpha  occ. eigenvalues --   -0.49445  -0.48358  -0.47579  -0.47530  -0.46545
 Alpha  occ. eigenvalues --   -0.46138  -0.45165  -0.44072
 Alpha virt. eigenvalues --   -0.09107  -0.06229   0.01066   0.02484   0.03752
 Alpha virt. eigenvalues --    0.04323   0.04855   0.08858   0.09984   0.10183
 Alpha virt. eigenvalues --    0.10650   0.12631   0.13010   0.14142   0.14500

  Beta  occ. eigenvalues --  -24.86981 -24.86837 -24.86727 -24.86572 -24.86324
  Beta  occ. eigenvalues --  -24.86213 -24.86168 -24.86108 -24.85874 -24.85605
  Beta  occ. eigenvalues --  -24.85467 -24.85463 -24.85374 -24.85318 -24.85285
  Beta  occ. eigenvalues --  -24.85163 -24.85050 -24.84969 -19.42210 -19.35782
  Beta  occ. eigenvalues --  -19.35474 -19.33329 -19.32858 -14.61134 -14.60184
  Beta  occ. eigenvalues --  -14.60098 -10.61773 -10.61550 -10.58261 -10.58102
  Beta  occ. eigenvalues --  -10.57751 -10.56868 -10.53904 -10.53792 -10.52484
  Beta  occ. eigenvalues --  -10.52290 -10.51229 -10.40985 -10.37171  -1.45635
  Beta  occ. eigenvalues --   -1.45395  -1.44424  -1.44412  -1.42868  -1.41514
  Beta  occ. eigenvalues --   -1.38733  -1.37594  -1.36109  -1.35975  -1.35908
  Beta  occ. eigenvalues --   -1.35430  -1.35335  -1.35305  -1.35018  -1.34746
  Beta  occ. eigenvalues --   -1.34547  -1.34428  -1.32578  -1.28337  -1.25512
  Beta  occ. eigenvalues --   -1.23110  -1.22948  -1.18336  -1.15720  -1.14621
  Beta  occ. eigenvalues --   -0.98403  -0.96776  -0.93476  -0.91223  -0.90630
  Beta  occ. eigenvalues --   -0.86537  -0.84989  -0.84506  -0.83724  -0.82306
  Beta  occ. eigenvalues --   -0.81691  -0.79268  -0.78121  -0.76521  -0.75570
  Beta  occ. eigenvalues --   -0.75261  -0.74241  -0.73951  -0.73092  -0.72576
  Beta  occ. eigenvalues --   -0.72135  -0.71778  -0.71640  -0.71197  -0.71020
  Beta  occ. eigenvalues --   -0.70614  -0.70330  -0.69108  -0.68763  -0.68544
  Beta  occ. eigenvalues --   -0.68324  -0.67468  -0.66953  -0.65168  -0.63797
  Beta  occ. eigenvalues --   -0.63532  -0.62842  -0.61959  -0.61412  -0.61281
  Beta  occ. eigenvalues --   -0.61136  -0.60194  -0.59929  -0.59875  -0.59389
  Beta  occ. eigenvalues --   -0.59264  -0.58719  -0.58475  -0.58315  -0.58210
  Beta  occ. eigenvalues --   -0.57934  -0.57651  -0.57490  -0.57049  -0.56739
  Beta  occ. eigenvalues --   -0.56642  -0.56112  -0.55592  -0.55170  -0.54839
  Beta  occ. eigenvalues --   -0.54753  -0.54595  -0.54522  -0.54429  -0.54203
  Beta  occ. eigenvalues --   -0.53725  -0.53596  -0.53316  -0.53174  -0.52956
  Beta  occ. eigenvalues --   -0.52843  -0.52611  -0.52139  -0.52088  -0.51704
  Beta  occ. eigenvalues --   -0.51463  -0.51244  -0.51105  -0.50661  -0.48911
  Beta  occ. eigenvalues --   -0.47894  -0.47289  -0.46459  -0.45268  -0.44588
  Beta  occ. eigenvalues --   -0.43926  -0.43014
  Beta virt. eigenvalues --   -0.30850  -0.08711  -0.06033   0.01092   0.02508
  Beta virt. eigenvalues --    0.03783   0.04407   0.04879   0.08985   0.10157
  Beta virt. eigenvalues --    0.10256   0.10717   0.12823   0.13084   0.14172

 Mulliken charges and spin densities:
               1          2
     1  C   -0.218513   0.008958
     2  N   -0.570713   0.038211
     3  C    0.945469  -0.076672
     4  O   -0.238796   0.648937
     5  N   -0.576288   0.074408
     6  C   -0.172192   0.004409
     7  C    0.598788   0.002849
     8  F   -0.261754   0.006095
     9  F   -0.272026   0.000617
    10  C    0.420526   0.000930
    11  F   -0.262715   0.000244
    12  O   -0.512400   0.000032
    13  C    1.000095   0.000013
    14  F   -0.244862   0.000010
    15  F   -0.233484   0.000001
    16  F   -0.236754   0.000001
    17  C    0.808824   0.000045
    18  F   -0.245627   0.000182
    19  F   -0.234656   0.000002
    20  F   -0.243900   0.000046
    21  C    0.903720  -0.031354
    22  O   -0.409857   0.155490
    23  N   -0.631209   0.011583
    24  C    0.756657  -0.001811
    25  F   -0.258962   0.003494
    26  F   -0.235024   0.003545
    27  C    0.441704   0.000195
    28  F   -0.268532   0.001286
    29  O   -0.487643   0.000092
    30  C    0.983098  -0.000014
    31  F   -0.232577   0.000001
    32  F   -0.236765   0.000007
    33  F   -0.234950  -0.000004
    34  C    0.820213  -0.000364
    35  F   -0.239060   0.000086
    36  F   -0.250445   0.000074
    37  F   -0.243941   0.001366
    38  C    0.907260  -0.030002
    39  O   -0.393883   0.178291
    40  H    0.206297  -0.000704
    41  H    0.205779   0.000639
    42  H    0.193762  -0.001485
    43  H    0.234968  -0.001303
    44  H    0.220367   0.001574
 Sum of Mulliken charges =   1.00000   1.00000

 Dipole moment (field-independent basis, Debye):
    X=              1.3872    Y=             -9.8089    Z=              6.0538  Tot=             11.6098
 Quadrupole moment (field-independent basis, Debye-Ang):
   XX=           -191.6464   YY=           -170.0196   ZZ=           -195.3743
   XY=              1.7569   XZ=              0.0972   YZ=            -12.8077

 Normal termination of Gaussian 09 at Sun Mar  3 17:51:47 2024.
