 Gaussian 09, Revision D.01,
 Gaussian 09:  ES64L-G09RevD.01 24-Apr-2013

 ----------------------------------------------------------------------
 #p CAM-B3LYP/6-31G(d,p) SCRF=(PCM,Solvent=Generic,Read) NoSymm out=wfn
 ----------------------------------------------------------------------

 ------------
 Title S1_neu
 ------------
 Symbolic Z-matrix:
 Charge =  0 Multiplicity = 1

                          Input orientation:
 ---------------------------------------------------------------------
 Center     Atomic      Atomic             Coordinates (Angstroms)
 Number     Number       Type             X           Y           Z
 ---------------------------------------------------------------------
      1          9           0       -0.078351   -0.425379   -1.406549
      2          6           0        0.479864    0.331400   -0.423202
      3          6           0        1.834435   -0.219908   -0.028450
      4          9           0        2.780189    0.257120   -0.895093
      5          6           0        1.918568   -1.742408   -0.068047
      6          9           0        1.010807   -2.319672    0.743934
      7          9           0        1.692646   -2.221099   -1.312938
      8          9           0        3.137884   -2.186315    0.313791
      9          9           0        2.190986    0.250624    1.194115
     10          6           0       -0.555880    0.608783    0.672758
     11          8           0       -1.501938    1.547743    0.117455
     12          6           0       -0.842520    2.143750   -0.996543
     13          9           0       -1.043272    3.473247   -0.984650
     14          9           0       -1.459995    1.644274   -2.092146
     15          6           0        0.616957    1.737477   -0.950443
     16          9           0        1.323447    2.512147   -0.093476
     17          9           0        1.231686    1.803567   -2.146622
     18          6           0       -1.287896   -0.532436    1.379659
     19          9           0       -0.391636   -1.223214    2.137187
     20          6           0       -2.054310   -1.463709    0.454215
     21          9           0       -2.759360   -2.389872    1.144236
     22          9           0       -1.219836   -2.141838   -0.365917
     23          9           0       -2.925688   -0.794859   -0.332400
     24          9           0       -2.160762    0.016770    2.283334
     25          9           0        0.063977    1.333807    1.655792
 ---------------------------------------------------------------------

 SCF Done:  E(RCAM-B3LYP) =  -1976.96012886     A.U. after   12 cycles

 Alpha  occ. eigenvalues --  -24.84573 -24.83931 -24.83922 -24.83856 -24.83754
 Alpha  occ. eigenvalues --  -24.83737 -24.83701 -24.83648 -24.83564 -24.83511
 Alpha  occ. eigenvalues --  -24.83419 -24.83364 -24.83353 -24.83184 -24.82654
 Alpha  occ. eigenvalues --  -24.82552 -19.32435 -10.55558 -10.55489 -10.53207
 Alpha  occ. eigenvalues --  -10.50531 -10.50306 -10.49689 -10.48645 -10.44390
 Alpha  occ. eigenvalues --   -1.42781  -1.42265  -1.41095  -1.39170  -1.38921
 Alpha  occ. eigenvalues --   -1.38251  -1.37169  -1.35486  -1.33753  -1.33184
 Alpha  occ. eigenvalues --   -1.33075  -1.32810  -1.32697  -1.32311  -1.32200
 Alpha  occ. eigenvalues --   -1.31918  -1.20565  -0.98353  -0.93763  -0.90935
 Alpha  occ. eigenvalues --   -0.86405  -0.82258  -0.78416  -0.77106  -0.76007
 Alpha  occ. eigenvalues --   -0.73531  -0.72186  -0.71629  -0.70748  -0.70556
 Alpha  occ. eigenvalues --   -0.69871  -0.69442  -0.68937  -0.68175  -0.67630
 Alpha  occ. eigenvalues --   -0.66110  -0.65868  -0.65698  -0.65407  -0.64497
 Alpha  occ. eigenvalues --   -0.63501  -0.58831  -0.58791  -0.58110  -0.57579
 Alpha  occ. eigenvalues --   -0.57179  -0.56707  -0.56097  -0.55967  -0.55355
 Alpha  occ. eigenvalues --   -0.55108  -0.55050  -0.54919  -0.54444  -0.53947
 Alpha  occ. eigenvalues --   -0.53899  -0.53502  -0.53169  -0.52572  -0.52164
 Alpha  occ. eigenvalues --   -0.51955  -0.51491  -0.51446  -0.51209  -0.50891
 Alpha  occ. eigenvalues --   -0.50567  -0.50349  -0.49751  -0.49578  -0.49021
 Alpha  occ. eigenvalues --   -0.48430  -0.46571  -0.44922  -0.44260  -0.42699
 Alpha virt. eigenvalues --    0.02855   0.05181   0.06833   0.09523   0.10481
 Alpha virt. eigenvalues --    0.14522   0.15166   0.15540   0.19899   0.20590
 Alpha virt. eigenvalues --    0.23188   0.23858   0.24795   0.25997   0.26494

 Mulliken charges:
               1
     1  F   -0.277216
     2  C    0.142703
     3  C    0.530168
     4  F   -0.272169
     5  C    0.789537
     6  F   -0.243536
     7  F   -0.245075
     8  F   -0.244624
     9  F   -0.253770
    10  C    0.500948
    11  O   -0.507960
    12  C    0.777519
    13  F   -0.240825
    14  F   -0.250900
    15  C    0.541514
    16  F   -0.257209
    17  F   -0.258625
    18  C    0.516816
    19  F   -0.258449
    20  C    0.772059
    21  F   -0.244303
    22  F   -0.242535
    23  F   -0.236901
    24  F   -0.263613
    25  F   -0.273555
 Sum of Mulliken charges =   0.00000

 Dipole moment (field-independent basis, Debye):
    X=              0.3969    Y=             -0.1820    Z=             -0.1823  Tot=              0.4732
 Quadrupole moment (field-independent basis, Debye-Ang):
   XX=           -131.7355   YY=           -130.8766   ZZ=           -131.1554
   XY=              0.6277   XZ=             -0.0434   YZ=             -0.9897

 Normal termination of Gaussian 09 at Mon Feb  3 21:44:54 2025.
