 Gaussian 09, Revision D.01,
 Gaussian 09:  ES64L-G09RevD.01 24-Apr-2013

 ----------------------------------------------------------------------
 #p CAM-B3LYP/6-31G(d,p) SCRF=(PCM,Solvent=Generic,Read) NoSymm out=wfn
 ----------------------------------------------------------------------

 --------------
 Title DBE2_neu
 --------------
 Symbolic Z-matrix:
 Charge =  0 Multiplicity = 1

                          Input orientation:
 ---------------------------------------------------------------------
 Center     Atomic      Atomic             Coordinates (Angstroms)
 Number     Number       Type             X           Y           Z
 ---------------------------------------------------------------------
      1          9           0        5.648617    1.445277   -2.538618
      2          6           0        5.345995    0.667962   -1.481976
      3          9           0        6.062309   -0.471394   -1.612650
      4          6           0        5.607383    1.331450   -0.135866
      5          9           0        6.841320    1.133449    0.355769
      6          9           0        5.453890    2.680890   -0.259532
      7          6           0        4.498412    0.780070    0.719371
      8          9           0        4.180315    1.696324    1.694105
      9          6           0        4.856298   -0.511649    1.440270
     10          9           0        3.780828   -0.883867    2.200424
     11          6           0        5.313071   -1.679398    0.567057
     12          8           0        6.637862   -1.925164    0.629299
     13          8           0        4.610468   -2.334989   -0.184863
     14          9           0        5.822689   -0.204655    2.366033
     15          6           0        3.387368    0.752966   -0.321256
     16          9           0        3.067729    2.060100   -0.596892
     17          6           0        2.094589    0.055422    0.108260
     18          9           0        2.310201   -1.269295    0.317937
     19          6           0        0.992742    0.282852   -0.935318
     20          7           0       -0.044533    1.094589   -0.501897
     21          6           0       -1.233387    1.303384   -1.303534
     22          6           0       -2.223388    0.116974   -1.295774
     23          7           0       -2.885652   -0.249533   -0.027043
     24          6           0       -2.052705   -1.003761    0.921453
     25          6           0       -1.479228   -2.332084    0.404273
     26          6           0       -2.558478   -3.301729   -0.081300
     27          6           0       -1.955655   -4.630172   -0.511650
     28          6           0       -3.569757    0.863351    0.652244
     29          6           0       -4.658596    1.527927   -0.203606
     30          6           0       -5.502830    2.539740    0.578259
     31          6           0       -4.713289    3.749889    1.052179
     32          8           0        1.010540   -0.217330   -2.057924
     33          9           0        1.708605    0.556207    1.325469
     34          8           0        3.973442    0.284191   -1.540906
     35          1           0        6.797734   -2.680435    0.022448
     36          1           0       -0.083716    1.339890    0.482791
     37          1           0       -1.709081    2.221314   -0.945901
     38          1           0       -0.916397    1.487391   -2.336634
     39          1           0       -1.732795   -0.761544   -1.728325
     40          1           0       -3.012202    0.349753   -2.022458
     41          1           0       -2.664823   -1.255344    1.797906
     42          1           0       -1.233253   -0.386297    1.303297
     43          1           0       -0.923669   -2.801523    1.226748
     44          1           0       -0.745976   -2.156570   -0.390150
     45          1           0       -3.286002   -3.480114    0.719079
     46          1           0       -3.105411   -2.872327   -0.927930
     47          1           0       -1.248280   -4.490686   -1.335296
     48          1           0       -1.427391   -5.109346    0.318100
     49          1           0       -2.742721   -5.310698   -0.851185
     50          1           0       -2.840682    1.606844    0.992761
     51          1           0       -4.062000    0.475180    1.553251
     52          1           0       -5.330277    0.753661   -0.594939
     53          1           0       -4.216812    2.034810   -1.068908
     54          1           0       -6.317178    2.886822   -0.068756
     55          1           0       -5.970855    2.049168    1.439380
     56          1           0       -5.384814    4.474036    1.523585
     57          1           0       -4.213573    4.246287    0.214927
     58          1           0       -3.956999    3.471733    1.791256
 ---------------------------------------------------------------------

 SCF Done:  E(RCAM-B3LYP) =  -2108.41914679     A.U. after   13 cycles

 Alpha  occ. eigenvalues --  -24.83562 -24.83197 -24.82969 -24.82615 -24.82490
 Alpha  occ. eigenvalues --  -24.82074 -24.81991 -24.81864 -24.81821 -24.81463
 Alpha  occ. eigenvalues --  -19.31873 -19.30069 -19.25209 -19.21882 -14.45301
 Alpha  occ. eigenvalues --  -14.39523 -10.52986 -10.49363 -10.48942 -10.47824
 Alpha  occ. eigenvalues --  -10.47085 -10.44392 -10.42665 -10.39796 -10.30116
 Alpha  occ. eigenvalues --  -10.28292 -10.27960 -10.27563 -10.25334 -10.25222
 Alpha  occ. eigenvalues --  -10.24732 -10.24585 -10.24261 -10.23653  -1.40564
 Alpha  occ. eigenvalues --   -1.38441  -1.37889  -1.37153  -1.35255  -1.33062
 Alpha  occ. eigenvalues --   -1.32809  -1.31613  -1.30944  -1.30537  -1.22120
 Alpha  occ. eigenvalues --   -1.20212  -1.13879  -1.12342  -1.02129  -0.99163
 Alpha  occ. eigenvalues --   -0.97527  -0.91210  -0.88007  -0.87304  -0.86526
 Alpha  occ. eigenvalues --   -0.84542  -0.81926  -0.80388  -0.78225  -0.77483
 Alpha  occ. eigenvalues --   -0.76480  -0.74481  -0.73478  -0.71161  -0.70747
 Alpha  occ. eigenvalues --   -0.70363  -0.69405  -0.68268  -0.67537  -0.66770
 Alpha  occ. eigenvalues --   -0.66484  -0.66229  -0.66107  -0.65116  -0.64326
 Alpha  occ. eigenvalues --   -0.63974  -0.63662  -0.62977  -0.62711  -0.62176
 Alpha  occ. eigenvalues --   -0.58449  -0.57657  -0.57168  -0.56806  -0.55949
 Alpha  occ. eigenvalues --   -0.55744  -0.55362  -0.55002  -0.54822  -0.54701
 Alpha  occ. eigenvalues --   -0.54139  -0.53626  -0.53152  -0.52824  -0.52575
 Alpha  occ. eigenvalues --   -0.52193  -0.51917  -0.51743  -0.51698  -0.51086
 Alpha  occ. eigenvalues --   -0.51055  -0.50787  -0.50150  -0.49975  -0.49553
 Alpha  occ. eigenvalues --   -0.49226  -0.48996  -0.48937  -0.48760  -0.48133
 Alpha  occ. eigenvalues --   -0.47770  -0.47341  -0.46164  -0.45910  -0.45517
 Alpha  occ. eigenvalues --   -0.45409  -0.44633  -0.43865  -0.43759  -0.42549
 Alpha  occ. eigenvalues --   -0.42025  -0.41554  -0.40884  -0.40613  -0.39679
 Alpha  occ. eigenvalues --   -0.39106  -0.38702  -0.38105  -0.37815  -0.37470
 Alpha  occ. eigenvalues --   -0.37095  -0.34720  -0.33596  -0.26250
 Alpha virt. eigenvalues --   -0.00567   0.02501   0.05145   0.07002   0.10134
 Alpha virt. eigenvalues --    0.10804   0.12261   0.12736   0.13403   0.13953
 Alpha virt. eigenvalues --    0.15449   0.15980   0.16483   0.16860   0.17376

 Mulliken charges:
               1
     1  F   -0.241440
     2  C    0.772459
     3  F   -0.247792
     4  C    0.513032
     5  F   -0.249357
     6  F   -0.267864
     7  C    0.217636
     8  F   -0.295605
     9  C    0.619851
    10  F   -0.267179
    11  C    0.507383
    12  O   -0.471144
    13  O   -0.435805
    14  F   -0.274678
    15  C    0.458612
    16  F   -0.285605
    17  C    0.582767
    18  F   -0.255029
    19  C    0.533384
    20  N   -0.527244
    21  C   -0.063860
    22  C   -0.061780
    23  N   -0.441234
    24  C   -0.018893
    25  C   -0.204361
    26  C   -0.163580
    27  C   -0.319975
    28  C   -0.018060
    29  C   -0.190338
    30  C   -0.184413
    31  C   -0.319356
    32  O   -0.510779
    33  F   -0.292539
    34  O   -0.477381
    35  H    0.361323
    36  H    0.290483
    37  H    0.120149
    38  H    0.141580
    39  H    0.130299
    40  H    0.113164
    41  H    0.097757
    42  H    0.050523
    43  H    0.096828
    44  H    0.102404
    45  H    0.089298
    46  H    0.106238
    47  H    0.107241
    48  H    0.099904
    49  H    0.098000
    50  H    0.066042
    51  H    0.102267
    52  H    0.107156
    53  H    0.092855
    54  H    0.097824
    55  H    0.096686
    56  H    0.104938
    57  H    0.102045
    58  H    0.105159
 Sum of Mulliken charges =   0.00000

 Dipole moment (field-independent basis, Debye):
    X=             -1.0870    Y=              0.9392    Z=              1.6734  Tot=              2.2054
 Quadrupole moment (field-independent basis, Debye-Ang):
   XX=           -178.6621   YY=           -191.0968   ZZ=           -200.8549
   XY=            -15.6623   XZ=             -1.7068   YZ=             -3.1300

 Normal termination of Gaussian 09 at Mon Feb  3 21:58:28 2025.
