 Gaussian 09, Revision D.01,
 Gaussian 09:  ES64L-G09RevD.01 24-Apr-2013

 ----------------------------------------------------------------------
 #p CAM-B3LYP/6-31G(d,p) SCRF=(PCM,Solvent=Generic,Read) NoSymm out=wfn
 ----------------------------------------------------------------------

 -------------------
 Title A444117590_p1
 -------------------
 Symbolic Z-matrix:
 Charge =  1 Multiplicity = 2

                          Input orientation:
 ---------------------------------------------------------------------
 Center     Atomic      Atomic             Coordinates (Angstroms)
 Number     Number       Type             X           Y           Z
 ---------------------------------------------------------------------
      1          6           0        1.568614   -3.122553   -2.982116
      2          6           0        0.354523   -3.172550   -2.417313
      3          6           0        0.102511   -3.098393   -0.935501
      4          7           0       -0.430878   -1.782711   -0.611236
      5          6           0        0.458179   -0.802057   -0.226979
      6          8           0        1.668290   -1.020461   -0.141354
      7          7           0       -0.088440    0.427699    0.066721
      8          6           0       -1.441400    0.696543    0.020417
      9          8           0       -1.878809    1.779812    0.414114
     10          7           0       -2.257224   -0.314775   -0.444217
     11          6           0       -1.789481   -1.584801   -0.719159
     12          8           0       -2.540354   -2.504427   -1.054783
     13          6           0       -3.713474   -0.096016   -0.561921
     14          6           0       -4.084189    1.143778   -1.384157
     15          6           0       -4.662294    2.289198   -0.814808
     16          6           0       -4.983922    3.394643   -1.605679
     17          6           0       -4.728978    3.375453   -2.974689
     18          6           0       -4.148936    2.251877   -3.556634
     19          6           0       -3.827520    1.145089   -2.768920
     20          6           0       -4.505582   -0.311569    0.736923
     21          6           0       -4.015966    0.015913    2.011149
     22          6           0       -4.791895   -0.193487    3.155292
     23          6           0       -6.071596   -0.729517    3.047816
     24          6           0       -6.580914   -1.054279    1.795094
     25          6           0       -5.807645   -0.844990    0.651422
     26          6           0        0.811773    1.490741    0.502899
     27          6           0        0.890368    1.481840    2.006803
     28          6           0        1.928464    1.181331    2.807353
     29          6           0        3.344303    0.782343    2.483164
     30          8           0        3.748160    1.258695    1.205627
     31          6           0        4.899951    0.715328    0.705241
     32          6           0        5.953514    0.213213    1.472104
     33          6           0        7.092551   -0.306601    0.845514
     34          6           0        7.184875   -0.320976   -0.551608
     35          6           0        6.133798    0.195152   -1.317206
     36          6           0        5.001078    0.716690   -0.687739
     37          6           0        8.368411   -0.867131   -1.257933
     38          8           0        8.508373   -0.940014   -2.465294
     39          8           0        9.326967   -1.297604   -0.416523
     40          1           0        1.686077   -3.191733   -4.059510
     41          1           0        2.469323   -2.999206   -2.385346
     42          1           0       -0.521138   -3.295612   -3.051961
     43          1           0        1.022327   -3.290462   -0.370686
     44          1           0       -0.609735   -3.881681   -0.651332
     45          1           0       -4.084293   -0.908966   -1.203092
     46          1           0       -4.855380    2.341237    0.254600
     47          1           0       -5.427591    4.275805   -1.148800
     48          1           0       -4.978897    4.238591   -3.584958
     49          1           0       -3.946133    2.238116   -4.624180
     50          1           0       -3.376577    0.275450   -3.243775
     51          1           0       -3.031512    0.451379    2.146630
     52          1           0       -4.395050    0.069022    4.132705
     53          1           0       -6.671804   -0.889677    3.938955
     54          1           0       -7.581356   -1.469103    1.705630
     55          1           0       -6.232075   -1.101944   -0.318077
     56          1           0        0.425420    2.463894    0.176534
     57          1           0        1.778265    1.367813    0.015584
     58          1           0       -0.041862    1.766214    2.497623
     59          1           0        1.736684    1.219362    3.879941
     60          1           0        3.992977    1.233666    3.243899
     61          1           0        3.416858   -0.310814    2.547569
     62          1           0        5.924290    0.223957    2.556945
     63          1           0        7.902966   -0.694760    1.458015
     64          1           0        6.188790    0.192981   -2.404004
     65          1           0        4.183748    1.110266   -1.287947
     66          1           0       10.030472   -1.624221   -1.014825
 ---------------------------------------------------------------------

 SCF Done:  E(UCAM-B3LYP) =  -1773.97950220     A.U. after   31 cycles

 Alpha  occ. eigenvalues --  -19.42849 -19.35212 -19.30687 -19.26363 -19.25532
 Alpha  occ. eigenvalues --  -19.25232 -14.52987 -14.52485 -14.52409 -10.49322
 Alpha  occ. eigenvalues --  -10.49073 -10.47419 -10.46908 -10.46592 -10.42792
 Alpha  occ. eigenvalues --  -10.42241 -10.40926 -10.40768 -10.40567 -10.39489
 Alpha  occ. eigenvalues --  -10.36271 -10.35357 -10.34614 -10.34224 -10.33569
 Alpha  occ. eigenvalues --  -10.30654 -10.30477 -10.30375 -10.29714 -10.29184
 Alpha  occ. eigenvalues --  -10.29168 -10.29139 -10.28953 -10.28869 -10.28801
 Alpha  occ. eigenvalues --  -10.28722 -10.28674 -10.28623 -10.28536  -1.30771
 Alpha  occ. eigenvalues --   -1.27650  -1.23779  -1.19201  -1.18803  -1.18009
 Alpha  occ. eigenvalues --   -1.10597  -1.08593  -1.08252  -1.07999  -0.99746
 Alpha  occ. eigenvalues --   -0.97150  -0.96537  -0.95895  -0.95353  -0.92056
 Alpha  occ. eigenvalues --   -0.90289  -0.89763  -0.85367  -0.85144  -0.84975
 Alpha  occ. eigenvalues --   -0.84576  -0.83603  -0.83344  -0.81970  -0.81958
 Alpha  occ. eigenvalues --   -0.78127  -0.77229  -0.76833  -0.75145  -0.74203
 Alpha  occ. eigenvalues --   -0.71008  -0.70866  -0.70604  -0.69677  -0.69622
 Alpha  occ. eigenvalues --   -0.68775  -0.68321  -0.67661  -0.66642  -0.64916
 Alpha  occ. eigenvalues --   -0.64449  -0.63786  -0.63051  -0.62023  -0.61703
 Alpha  occ. eigenvalues --   -0.61271  -0.61089  -0.60743  -0.59448  -0.59141
 Alpha  occ. eigenvalues --   -0.58528  -0.58220  -0.58049  -0.57766  -0.57170
 Alpha  occ. eigenvalues --   -0.56421  -0.56229  -0.55984  -0.55221  -0.55042
 Alpha  occ. eigenvalues --   -0.54785  -0.54024  -0.53777  -0.53623  -0.53522
 Alpha  occ. eigenvalues --   -0.52995  -0.52194  -0.51807  -0.50979  -0.50746
 Alpha  occ. eigenvalues --   -0.50360  -0.49908  -0.48701  -0.48151  -0.47722
 Alpha  occ. eigenvalues --   -0.46970  -0.46063  -0.45971  -0.45220  -0.44111
 Alpha  occ. eigenvalues --   -0.44084  -0.43835  -0.43603  -0.43303  -0.42938
 Alpha  occ. eigenvalues --   -0.42437  -0.42242  -0.41299  -0.39689  -0.38932
 Alpha  occ. eigenvalues --   -0.38323  -0.38012  -0.37816  -0.36163  -0.33469
 Alpha  occ. eigenvalues --   -0.33096  -0.32741  -0.31540
 Alpha virt. eigenvalues --   -0.11812  -0.08633  -0.01446  -0.00728   0.00130
 Alpha virt. eigenvalues --    0.00428   0.00846   0.01545   0.02295   0.02627
 Alpha virt. eigenvalues --    0.02909   0.04071   0.06077   0.07188   0.08006

  Beta  occ. eigenvalues --  -19.42041 -19.35212 -19.30497 -19.26363 -19.25532
  Beta  occ. eigenvalues --  -19.25232 -14.52986 -14.52485 -14.52409 -10.49405
  Beta  occ. eigenvalues --  -10.48838 -10.47419 -10.46909 -10.46592 -10.42260
  Beta  occ. eigenvalues --  -10.42246 -10.40672 -10.40591 -10.40572 -10.39696
  Beta  occ. eigenvalues --  -10.36270 -10.35357 -10.34614 -10.34220 -10.33562
  Beta  occ. eigenvalues --  -10.30654 -10.30477 -10.30375 -10.29714 -10.29184
  Beta  occ. eigenvalues --  -10.29168 -10.29139 -10.28953 -10.28869 -10.28801
  Beta  occ. eigenvalues --  -10.28722 -10.28674 -10.28623 -10.28536  -1.29222
  Beta  occ. eigenvalues --   -1.27550  -1.23778  -1.19200  -1.18803  -1.17749
  Beta  occ. eigenvalues --   -1.10596  -1.08261  -1.07998  -1.07722  -0.98764
  Beta  occ. eigenvalues --   -0.97139  -0.96225  -0.95895  -0.94869  -0.91991
  Beta  occ. eigenvalues --   -0.90217  -0.89704  -0.85231  -0.85142  -0.84975
  Beta  occ. eigenvalues --   -0.84575  -0.83540  -0.83013  -0.81969  -0.81642
  Beta  occ. eigenvalues --   -0.78040  -0.77226  -0.76553  -0.75142  -0.73871
  Beta  occ. eigenvalues --   -0.70943  -0.70704  -0.70524  -0.69623  -0.69354
  Beta  occ. eigenvalues --   -0.68671  -0.67665  -0.66774  -0.65836  -0.64869
  Beta  occ. eigenvalues --   -0.64275  -0.63666  -0.62852  -0.61687  -0.61236
  Beta  occ. eigenvalues --   -0.61067  -0.60971  -0.60544  -0.59352  -0.58912
  Beta  occ. eigenvalues --   -0.58380  -0.58056  -0.57840  -0.57604  -0.56564
  Beta  occ. eigenvalues --   -0.56293  -0.56036  -0.55605  -0.55048  -0.54850
  Beta  occ. eigenvalues --   -0.54743  -0.53995  -0.53649  -0.53522  -0.53075
  Beta  occ. eigenvalues --   -0.52770  -0.51850  -0.50982  -0.50769  -0.50559
  Beta  occ. eigenvalues --   -0.50185  -0.48754  -0.48658  -0.48146  -0.47345
  Beta  occ. eigenvalues --   -0.46064  -0.46004  -0.45961  -0.45220  -0.44110
  Beta  occ. eigenvalues --   -0.43423  -0.43354  -0.43302  -0.42938  -0.42435
  Beta  occ. eigenvalues --   -0.42240  -0.41296  -0.39678  -0.38882  -0.38319
  Beta  occ. eigenvalues --   -0.37935  -0.37809  -0.36163  -0.33469  -0.33096
  Beta  occ. eigenvalues --   -0.32741  -0.31540
  Beta virt. eigenvalues --   -0.26164  -0.09269  -0.07172  -0.01365  -0.00723
  Beta virt. eigenvalues --    0.00163   0.00846   0.01544   0.01951   0.02295
  Beta virt. eigenvalues --    0.02627   0.02909   0.04281   0.06244   0.07303

 Mulliken charges and spin densities:
               1          2
     1  C   -0.232091  -0.000001
     2  C   -0.049658   0.000005
     3  C   -0.106334   0.000007
     4  N   -0.555521   0.000110
     5  C    0.822433   0.000027
     6  O   -0.549756   0.000023
     7  N   -0.561011   0.000387
     8  C    0.834716  -0.000079
     9  O   -0.517643   0.000201
    10  N   -0.576067  -0.000012
    11  C    0.827518  -0.000019
    12  O   -0.517271   0.000037
    13  C   -0.071831  -0.000002
    14  C    0.101484   0.000004
    15  C   -0.092528   0.000000
    16  C   -0.103544   0.000000
    17  C   -0.092035   0.000001
    18  C   -0.097750   0.000002
    19  C   -0.129532  -0.000002
    20  C    0.103839   0.000002
    21  C   -0.122772  -0.000001
    22  C   -0.099536   0.000002
    23  C   -0.091715  -0.000001
    24  C   -0.094618   0.000002
    25  C   -0.117295  -0.000002
    26  C   -0.110826   0.000532
    27  C   -0.047297   0.005561
    28  C   -0.128279   0.001718
    29  C   -0.024673  -0.016639
    30  O   -0.408667   0.268580
    31  C    0.410411   0.164766
    32  C   -0.084417   0.132878
    33  C   -0.075219  -0.084290
    34  C    0.076589   0.407357
    35  C   -0.083304  -0.171999
    36  C   -0.071157   0.241235
    37  C    0.586552  -0.057165
    38  O   -0.431167   0.075323
    39  O   -0.486424   0.002239
    40  H    0.118599   0.000000
    41  H    0.103347  -0.000002
    42  H    0.124236   0.000000
    43  H    0.147119   0.000000
    44  H    0.166778   0.000003
    45  H    0.171843   0.000000
    46  H    0.108428   0.000000
    47  H    0.103821   0.000000
    48  H    0.102200   0.000000
    49  H    0.101484   0.000000
    50  H    0.094902   0.000000
    51  H    0.090257   0.000000
    52  H    0.098878   0.000000
    53  H    0.103860   0.000000
    54  H    0.108231   0.000000
    55  H    0.106426   0.000000
    56  H    0.175053   0.000586
    57  H    0.143489  -0.000442
    58  H    0.146053   0.000046
    59  H    0.140621  -0.000155
    60  H    0.173814   0.020733
    61  H    0.191427   0.018166
    62  H    0.184723  -0.006223
    63  H    0.199458   0.002198
    64  H    0.195586   0.005196
    65  H    0.196954  -0.010155
    66  H    0.368810  -0.000737
 Sum of Mulliken charges =   1.00000   1.00000

 Dipole moment (field-independent basis, Debye):
    X=             24.1897    Y=              1.0827    Z=              4.4443  Tot=             24.6184
 Quadrupole moment (field-independent basis, Debye-Ang):
   XX=            -42.1479   YY=           -215.8850   ZZ=           -188.6324
   XY=             -5.5860   XZ=             17.9501   YZ=             -0.4113

 Normal termination of Gaussian 09 at Mon Mar  4 23:17:51 2024.
