 Gaussian 09, Revision D.01,
 Gaussian 09:  ES64L-G09RevD.01 24-Apr-2013

 ----------------------------------------------------------------------
 #p CAM-B3LYP/6-31G(d,p) SCRF=(PCM,Solvent=Generic,Read) NoSymm out=wfn
 ----------------------------------------------------------------------

 ------------------
 Title A444117590_0
 ------------------
 Symbolic Z-matrix:
 Charge =  0 Multiplicity = 1

                          Input orientation:
 ---------------------------------------------------------------------
 Center     Atomic      Atomic             Coordinates (Angstroms)
 Number     Number       Type             X           Y           Z
 ---------------------------------------------------------------------
      1          6           0        1.568614   -3.122553   -2.982116
      2          6           0        0.354523   -3.172550   -2.417313
      3          6           0        0.102511   -3.098393   -0.935501
      4          7           0       -0.430878   -1.782711   -0.611236
      5          6           0        0.458179   -0.802057   -0.226979
      6          8           0        1.668290   -1.020461   -0.141354
      7          7           0       -0.088440    0.427699    0.066721
      8          6           0       -1.441400    0.696543    0.020417
      9          8           0       -1.878809    1.779812    0.414114
     10          7           0       -2.257224   -0.314775   -0.444217
     11          6           0       -1.789481   -1.584801   -0.719159
     12          8           0       -2.540354   -2.504427   -1.054783
     13          6           0       -3.713474   -0.096016   -0.561921
     14          6           0       -4.084189    1.143778   -1.384157
     15          6           0       -4.662294    2.289198   -0.814808
     16          6           0       -4.983922    3.394643   -1.605679
     17          6           0       -4.728978    3.375453   -2.974689
     18          6           0       -4.148936    2.251877   -3.556634
     19          6           0       -3.827520    1.145089   -2.768920
     20          6           0       -4.505582   -0.311569    0.736923
     21          6           0       -4.015966    0.015913    2.011149
     22          6           0       -4.791895   -0.193487    3.155292
     23          6           0       -6.071596   -0.729517    3.047816
     24          6           0       -6.580914   -1.054279    1.795094
     25          6           0       -5.807645   -0.844990    0.651422
     26          6           0        0.811773    1.490741    0.502899
     27          6           0        0.890368    1.481840    2.006803
     28          6           0        1.928464    1.181331    2.807353
     29          6           0        3.344303    0.782343    2.483164
     30          8           0        3.748160    1.258695    1.205627
     31          6           0        4.899951    0.715328    0.705241
     32          6           0        5.953514    0.213213    1.472104
     33          6           0        7.092551   -0.306601    0.845514
     34          6           0        7.184875   -0.320976   -0.551608
     35          6           0        6.133798    0.195152   -1.317206
     36          6           0        5.001078    0.716690   -0.687739
     37          6           0        8.368411   -0.867131   -1.257933
     38          8           0        8.508373   -0.940014   -2.465294
     39          8           0        9.326967   -1.297604   -0.416523
     40          1           0        1.686077   -3.191733   -4.059510
     41          1           0        2.469323   -2.999206   -2.385346
     42          1           0       -0.521138   -3.295612   -3.051961
     43          1           0        1.022327   -3.290462   -0.370686
     44          1           0       -0.609735   -3.881681   -0.651332
     45          1           0       -4.084293   -0.908966   -1.203092
     46          1           0       -4.855380    2.341237    0.254600
     47          1           0       -5.427591    4.275805   -1.148800
     48          1           0       -4.978897    4.238591   -3.584958
     49          1           0       -3.946133    2.238116   -4.624180
     50          1           0       -3.376577    0.275450   -3.243775
     51          1           0       -3.031512    0.451379    2.146630
     52          1           0       -4.395050    0.069022    4.132705
     53          1           0       -6.671804   -0.889677    3.938955
     54          1           0       -7.581356   -1.469103    1.705630
     55          1           0       -6.232075   -1.101944   -0.318077
     56          1           0        0.425420    2.463894    0.176534
     57          1           0        1.778265    1.367813    0.015584
     58          1           0       -0.041862    1.766214    2.497623
     59          1           0        1.736684    1.219362    3.879941
     60          1           0        3.992977    1.233666    3.243899
     61          1           0        3.416858   -0.310814    2.547569
     62          1           0        5.924290    0.223957    2.556945
     63          1           0        7.902966   -0.694760    1.458015
     64          1           0        6.188790    0.192981   -2.404004
     65          1           0        4.183748    1.110266   -1.287947
     66          1           0       10.030472   -1.624221   -1.014825
 ---------------------------------------------------------------------

 SCF Done:  E(RCAM-B3LYP) =  -1774.25440419     A.U. after   14 cycles

 Alpha  occ. eigenvalues --  -19.26803 -19.25857 -19.21699 -19.21593 -19.21460
 Alpha  occ. eigenvalues --  -19.20784 -14.48838 -14.48435 -14.48294 -10.42991
 Alpha  occ. eigenvalues --  -10.42913 -10.42689 -10.39640 -10.33529 -10.32664
 Alpha  occ. eigenvalues --  -10.32477 -10.30844 -10.30467 -10.28072 -10.28057
 Alpha  occ. eigenvalues --  -10.27762 -10.27632 -10.27612 -10.27578 -10.27246
 Alpha  occ. eigenvalues --  -10.27155 -10.26798 -10.26740 -10.26667 -10.26579
 Alpha  occ. eigenvalues --  -10.26515 -10.26504 -10.26452 -10.26334 -10.26302
 Alpha  occ. eigenvalues --  -10.26163 -10.26130 -10.26063 -10.25966  -1.19648
 Alpha  occ. eigenvalues --   -1.18817  -1.15488  -1.15010  -1.14784  -1.08806
 Alpha  occ. eigenvalues --   -1.06465  -1.04198  -1.03902  -0.94751  -0.94498
 Alpha  occ. eigenvalues --   -0.93380  -0.89420  -0.88035  -0.86889  -0.85122
 Alpha  occ. eigenvalues --   -0.83695  -0.82623  -0.82487  -0.82251  -0.82050
 Alpha  occ. eigenvalues --   -0.79658  -0.78638  -0.77308  -0.73749  -0.73501
 Alpha  occ. eigenvalues --   -0.71910  -0.71197  -0.69778  -0.68368  -0.67958
 Alpha  occ. eigenvalues --   -0.67067  -0.66234  -0.65563  -0.64208  -0.63103
 Alpha  occ. eigenvalues --   -0.61609  -0.61013  -0.60040  -0.58517  -0.58376
 Alpha  occ. eigenvalues --   -0.57649  -0.56387  -0.55992  -0.55516  -0.55077
 Alpha  occ. eigenvalues --   -0.54525  -0.54149  -0.53593  -0.53392  -0.52705
 Alpha  occ. eigenvalues --   -0.52515  -0.52120  -0.52010  -0.51908  -0.51300
 Alpha  occ. eigenvalues --   -0.51164  -0.50738  -0.50271  -0.49980  -0.49554
 Alpha  occ. eigenvalues --   -0.48588  -0.48437  -0.48252  -0.47999  -0.47779
 Alpha  occ. eigenvalues --   -0.47274  -0.46015  -0.45873  -0.45430  -0.44559
 Alpha  occ. eigenvalues --   -0.44427  -0.43803  -0.43324  -0.42657  -0.42296
 Alpha  occ. eigenvalues --   -0.41584  -0.41491  -0.40644  -0.40495  -0.40376
 Alpha  occ. eigenvalues --   -0.39703  -0.38404  -0.37833  -0.37681  -0.37535
 Alpha  occ. eigenvalues --   -0.35274  -0.34631  -0.34595  -0.34156  -0.33766
 Alpha  occ. eigenvalues --   -0.32413  -0.31941  -0.31394  -0.30912  -0.30600
 Alpha  occ. eigenvalues --   -0.30204  -0.28961  -0.28803
 Alpha virt. eigenvalues --    0.00678   0.03108   0.03353   0.03560   0.03781
 Alpha virt. eigenvalues --    0.04101   0.05098   0.05380   0.05837   0.06286
 Alpha virt. eigenvalues --    0.12147   0.13176   0.13229   0.14212   0.14667

 Mulliken charges:
               1
     1  C   -0.232213
     2  C   -0.053278
     3  C   -0.103456
     4  N   -0.555181
     5  C    0.812782
     6  O   -0.521247
     7  N   -0.559476
     8  C    0.830133
     9  O   -0.525088
    10  N   -0.576203
    11  C    0.824066
    12  O   -0.529071
    13  C   -0.067144
    14  C    0.102608
    15  C   -0.091128
    16  C   -0.103574
    17  C   -0.092480
    18  C   -0.097448
    19  C   -0.127718
    20  C    0.102938
    21  C   -0.122802
    22  C   -0.100151
    23  C   -0.092851
    24  C   -0.095698
    25  C   -0.117734
    26  C   -0.107190
    27  C   -0.068041
    28  C   -0.116467
    29  C    0.038191
    30  O   -0.531068
    31  C    0.367559
    32  C   -0.138852
    33  C   -0.113234
    34  C    0.020257
    35  C   -0.105965
    36  C   -0.133908
    37  C    0.545917
    38  O   -0.496328
    39  O   -0.502954
    40  H    0.110975
    41  H    0.121145
    42  H    0.113311
    43  H    0.153160
    44  H    0.155905
    45  H    0.166538
    46  H    0.106578
    47  H    0.099199
    48  H    0.096946
    49  H    0.098644
    50  H    0.096594
    51  H    0.100612
    52  H    0.098992
    53  H    0.098055
    54  H    0.101606
    55  H    0.102055
    56  H    0.155141
    57  H    0.169220
    58  H    0.115035
    59  H    0.106816
    60  H    0.115822
    61  H    0.137673
    62  H    0.108366
    63  H    0.127122
    64  H    0.127631
    65  H    0.112726
    66  H    0.337630
 Sum of Mulliken charges =   0.00000

 Dipole moment (field-independent basis, Debye):
    X=             -0.8181    Y=             -0.1328    Z=              3.1033  Tot=              3.2120
 Quadrupole moment (field-independent basis, Debye-Ang):
   XX=           -221.1948   YY=           -225.4107   ZZ=           -205.9562
   XY=             -5.9280   XZ=             18.0220   YZ=             -3.8744

 Normal termination of Gaussian 09 at Mon Mar  4 23:14:42 2024.
