 Gaussian 09, Revision D.01,
 Gaussian 09:  ES64L-G09RevD.01 24-Apr-2013

 ----------------------------------------------------------------------
 #p CAM-B3LYP/6-31G(d,p) SCRF=(PCM,Solvent=Generic,Read) NoSymm out=wfn
 ----------------------------------------------------------------------

 --------------
 Title AEP2_neu
 --------------
 Symbolic Z-matrix:
 Charge =  0 Multiplicity = 1

                          Input orientation:
 ---------------------------------------------------------------------
 Center     Atomic      Atomic             Coordinates (Angstroms)
 Number     Number       Type             X           Y           Z
 ---------------------------------------------------------------------
      1          9           0        6.441882   -1.429621   -1.104635
      2          6           0        5.506610   -0.581064   -0.637422
      3          9           0        6.066408    0.649090   -0.579076
      4          6           0        4.927206   -0.999071    0.698713
      5          9           0        4.722432   -2.331858    0.753170
      6          9           0        5.696435   -0.670906    1.751739
      7          6           0        3.633151   -0.253588    0.653330
      8          9           0        3.923228    1.087024    0.792625
      9          6           0        2.650759   -0.644784    1.713368
     10          9           0        2.390677   -1.973365    1.620604
     11          6           0        3.164830   -0.281624    3.102336
     12          8           0        2.833830    0.963964    3.505407
     13          8           0        3.843674   -0.992036    3.828432
     14          9           0        1.471185   -0.014349    1.435061
     15          6           0        3.210999   -0.471813   -0.800643
     16          9           0        2.547056    0.646351   -1.228192
     17          6           0        2.369927   -1.704156   -1.209378
     18          9           0        2.480231   -1.842403   -2.574458
     19          6           0        0.872286   -1.557734   -0.867775
     20          7           0        0.176066   -0.640234   -1.637654
     21          6           0       -1.235268   -0.365368   -1.419924
     22          6           0       -1.465819    0.616127   -0.252564
     23          7           0       -2.853930    1.008855    0.037721
     24          6           0       -3.495790    1.721788   -1.070609
     25          6           0       -4.861317    2.266167   -0.646200
     26          6           0       -5.759158    1.155437   -0.111330
     27          6           0       -5.041949    0.365696    0.978492
     28          6           0       -3.669727   -0.118324    0.505110
     29          8           0        0.320815   -2.202572    0.021643
     30          9           0        2.928816   -2.834426   -0.701331
     31          8           0        4.441693   -0.488837   -1.577915
     32          1           0        3.211984    1.054579    4.407025
     33          1           0        0.667736   -0.099199   -2.343294
     34          1           0       -1.744101   -1.316711   -1.233574
     35          1           0       -1.614544    0.048152   -2.359244
     36          1           0       -0.882720    1.527362   -0.442784
     37          1           0       -1.027118    0.197049    0.662119
     38          1           0       -2.872206    2.567802   -1.383330
     39          1           0       -3.624593    1.068694   -1.942392
     40          1           0       -5.346302    2.754904   -1.498763
     41          1           0       -4.727287    3.032415    0.127990
     42          1           0       -6.033843    0.480538   -0.931271
     43          1           0       -6.689192    1.580126    0.282055
     44          1           0       -5.654574   -0.492605    1.276737
     45          1           0       -4.921844    0.997319    1.867941
     46          1           0       -3.803914   -0.865906   -0.286328
     47          1           0       -3.174719   -0.616885    1.347115
 ---------------------------------------------------------------------

 SCF Done:  E(RCAM-B3LYP) =  -1989.35468363     A.U. after   13 cycles

 Alpha  occ. eigenvalues --  -24.83535 -24.83344 -24.83298 -24.82813 -24.82806
 Alpha  occ. eigenvalues --  -24.82732 -24.82584 -24.82099 -24.81437 -24.81279
 Alpha  occ. eigenvalues --  -19.31562 -19.30387 -19.25693 -19.21499 -14.45329
 Alpha  occ. eigenvalues --  -14.39489 -10.52468 -10.49315 -10.49001 -10.47657
 Alpha  occ. eigenvalues --  -10.47472 -10.44646 -10.43015 -10.39721 -10.30069
 Alpha  occ. eigenvalues --  -10.28146 -10.27714 -10.27427 -10.24922 -10.24814
 Alpha  occ. eigenvalues --  -10.24762  -1.40578  -1.38548  -1.37962  -1.36978
 Alpha  occ. eigenvalues --   -1.36038  -1.34183  -1.32860  -1.31779  -1.31526
 Alpha  occ. eigenvalues --   -1.30050  -1.22347  -1.19651  -1.13651  -1.12560
 Alpha  occ. eigenvalues --   -1.01866  -1.00019  -0.97773  -0.90488  -0.88865
 Alpha  occ. eigenvalues --   -0.87822  -0.84133  -0.82987  -0.80863  -0.78144
 Alpha  occ. eigenvalues --   -0.76545  -0.74357  -0.73262  -0.71230  -0.70473
 Alpha  occ. eigenvalues --   -0.70094  -0.69767  -0.68938  -0.68437  -0.67306
 Alpha  occ. eigenvalues --   -0.66863  -0.66014  -0.65554  -0.65108  -0.64822
 Alpha  occ. eigenvalues --   -0.64239  -0.62986  -0.62409  -0.61757  -0.58586
 Alpha  occ. eigenvalues --   -0.57606  -0.57022  -0.56729  -0.56218  -0.55620
 Alpha  occ. eigenvalues --   -0.55012  -0.54740  -0.54419  -0.53824  -0.53667
 Alpha  occ. eigenvalues --   -0.53629  -0.53242  -0.52720  -0.52656  -0.52490
 Alpha  occ. eigenvalues --   -0.52331  -0.51913  -0.51517  -0.50894  -0.50803
 Alpha  occ. eigenvalues --   -0.50398  -0.50257  -0.50031  -0.49836  -0.49371
 Alpha  occ. eigenvalues --   -0.48906  -0.48298  -0.48081  -0.46262  -0.46094
 Alpha  occ. eigenvalues --   -0.45631  -0.45586  -0.44363  -0.44121  -0.43108
 Alpha  occ. eigenvalues --   -0.42621  -0.41318  -0.41186  -0.39720  -0.38443
 Alpha  occ. eigenvalues --   -0.38104  -0.36952  -0.36768  -0.34444  -0.33468
 Alpha  occ. eigenvalues --   -0.26747
 Alpha virt. eigenvalues --   -0.00475   0.02243   0.04178   0.09297   0.10157
 Alpha virt. eigenvalues --    0.11470   0.12373   0.13056   0.13648   0.14726
 Alpha virt. eigenvalues --    0.15684   0.16788   0.17328   0.17774   0.19274

 Mulliken charges:
               1
     1  F   -0.245923
     2  C    0.756316
     3  F   -0.251104
     4  C    0.548572
     5  F   -0.244460
     6  F   -0.253004
     7  C    0.157007
     8  F   -0.292034
     9  C    0.609805
    10  F   -0.251709
    11  C    0.536672
    12  O   -0.471890
    13  O   -0.439934
    14  F   -0.270535
    15  C    0.497929
    16  F   -0.278207
    17  C    0.548650
    18  F   -0.280508
    19  C    0.545874
    20  N   -0.542163
    21  C   -0.058605
    22  C   -0.041471
    23  N   -0.433850
    24  C   -0.033246
    25  C   -0.184107
    26  C   -0.186925
    27  C   -0.185176
    28  C   -0.034370
    29  O   -0.509760
    30  F   -0.263144
    31  O   -0.505993
    32  H    0.362358
    33  H    0.284364
    34  H    0.142378
    35  H    0.118212
    36  H    0.097942
    37  H    0.120140
    38  H    0.098121
    39  H    0.074051
    40  H    0.091869
    41  H    0.102500
    42  H    0.090270
    43  H    0.095092
    44  H    0.093627
    45  H    0.101743
    46  H    0.076570
    47  H    0.108055
 Sum of Mulliken charges =   0.00000

 Dipole moment (field-independent basis, Debye):
    X=             -2.0495    Y=              3.4189    Z=             -0.5432  Tot=              4.0230
 Quadrupole moment (field-independent basis, Debye-Ang):
   XX=           -175.3399   YY=           -182.7033   ZZ=           -160.9928
   XY=              7.6229   XZ=              7.8502   YZ=              5.6008

 Normal termination of Gaussian 09 at Mon Feb  3 21:56:30 2025.
