 Gaussian 09, Revision D.01,
 Gaussian 09:  ES64L-G09RevD.01 24-Apr-2013

 ----------------------------------------------------------------------
 #p CAM-B3LYP/6-31G(d,p) SCRF=(PCM,Solvent=Generic,Read) NoSymm out=wfn
 ----------------------------------------------------------------------

 ---------------
 Title TAIC0_pos
 ---------------
 Symbolic Z-matrix:
 Charge =  1 Multiplicity = 2

                          Input orientation:
 ---------------------------------------------------------------------
 Center     Atomic      Atomic             Coordinates (Angstroms)
 Number     Number       Type             X           Y           Z
 ---------------------------------------------------------------------
      1          8           0       -1.383650    1.893238    0.446146
      2          6           0       -0.471669    1.063162    0.443179
      3          7           0        0.832401    1.416550    0.714859
      4          6           0        1.133829    2.826155    0.960154
      5          6           0        1.408642    3.579207   -0.347719
      6          6           0        1.967607    4.989863   -0.144472
      7          6           0        1.095050    5.975191    0.630972
      8          9           0        0.923653    5.508219    1.899133
      9          9           0        1.816097    7.130629    0.765596
     10          6           0       -0.261896    6.296672   -0.023145
     11          9           0       -1.019273    5.176876   -0.105817
     12          9           0       -0.066630    6.743054   -1.289466
     13          8           0       -0.984756    7.250893    0.716291
     14          6           0       -1.992430    7.794608   -0.084837
     15          9           0       -2.881256    8.418376    0.716957
     16          9           0       -2.648568    6.854500   -0.790047
     17          9           0       -1.470595    8.711918   -0.922157
     18          6           0        1.885447    0.529989    0.646172
     19          8           0        3.058729    0.909088    0.700380
     20          7           0        1.556915   -0.799839    0.492673
     21          6           0        2.643203   -1.780031    0.486852
     22          6           0        3.214455   -1.975621   -0.923420
     23          6           0        4.553327   -2.723103   -0.964794
     24          6           0        4.496180   -4.144401   -0.410553
     25          9           0        3.480182   -4.815923   -1.014145
     26          9           0        4.182972   -4.076014    0.910695
     27          6           0        5.832297   -4.905085   -0.616590
     28          9           0        6.154487   -4.855302   -1.944382
     29          9           0        6.854422   -4.265135    0.011563
     30          8           0        5.903371   -6.267975   -0.281371
     31          6           0        5.491185   -6.484624    1.035098
     32          9           0        5.960760   -5.540977    1.869670
     33          9           0        4.148445   -6.519193    1.089993
     34          9           0        5.961839   -7.681843    1.439424
     35          6           0        0.277282   -1.237511    0.222449
     36          8           0        0.024533   -2.429080    0.036204
     37          7           0       -0.700989   -0.266988    0.160616
     38          6           0       -2.072807   -0.680777   -0.135384
     39          6           0       -2.847784   -1.011084    1.145644
     40          6           0       -4.362032   -1.149793    0.942199
     41          6           0       -4.767234   -2.300259    0.021684
     42          9           0       -4.157452   -3.439640    0.447712
     43          9           0       -4.286430   -2.052927   -1.229773
     44          6           0       -6.294414   -2.503837   -0.042376
     45          9           0       -6.770996   -2.785635    1.197428
     46          9           0       -6.597372   -3.553799   -0.842854
     47          8           0       -6.955408   -1.345737   -0.498510
     48          6           0       -8.255476   -1.678408   -0.892536
     49          9           0       -8.875054   -2.456522    0.012817
     50          9           0       -8.239755   -2.287842   -2.093265
     51          9           0       -8.960326   -0.532319   -1.015728
     52          1           0        2.005366    2.896488    1.622110
     53          1           0        0.290161    3.281778    1.489364
     54          1           0        2.140981    3.014360   -0.939962
     55          1           0        0.501102    3.612396   -0.961127
     56          1           0        2.929922    4.906739    0.377226
     57          1           0        2.200800    5.421197   -1.125895
     58          1           0        2.265243   -2.731613    0.876496
     59          1           0        3.433062   -1.441606    1.168484
     60          1           0        3.367732   -0.995534   -1.394238
     61          1           0        2.478702   -2.498732   -1.547930
     62          1           0        4.876373   -2.754915   -2.012393
     63          1           0        5.299302   -2.144716   -0.407195
     64          1           0       -2.578660    0.123889   -0.681845
     65          1           0       -2.048127   -1.552558   -0.797547
     66          1           0       -2.682778   -0.218434    1.886636
     67          1           0       -2.446893   -1.929478    1.592340
     68          1           0       -4.812343   -1.306536    1.929863
     69          1           0       -4.753004   -0.203689    0.549723
 ---------------------------------------------------------------------

 SCF Done:  E(UCAM-B3LYP) =  -3522.09035719     A.U. after   53 cycles

 Alpha  occ. eigenvalues --  -24.84968 -24.84831 -24.84652 -24.84515 -24.84438
 Alpha  occ. eigenvalues --  -24.84421 -24.84282 -24.84097 -24.83954 -24.83928
 Alpha  occ. eigenvalues --  -24.83900 -24.83818 -24.83766 -24.83727 -24.83711
 Alpha  occ. eigenvalues --  -24.83445 -24.83345 -24.83132 -24.82654 -24.82505
 Alpha  occ. eigenvalues --  -24.82010 -19.33998 -19.33694 -19.33603 -19.33177
 Alpha  occ. eigenvalues --  -19.30863 -19.30019 -14.64263 -14.59044 -14.55694
 Alpha  occ. eigenvalues --  -10.60635 -10.60303 -10.60199 -10.54588 -10.54554
 Alpha  occ. eigenvalues --  -10.53922 -10.52125 -10.52028 -10.50364 -10.49436
 Alpha  occ. eigenvalues --  -10.48477 -10.48030 -10.39158 -10.36790 -10.35275
 Alpha  occ. eigenvalues --  -10.34275 -10.32890 -10.32137 -10.31856 -10.31045
 Alpha  occ. eigenvalues --  -10.30917  -1.44282  -1.43992  -1.43728  -1.40798
 Alpha  occ. eigenvalues --   -1.40417  -1.40130  -1.38865  -1.37744  -1.37503
 Alpha  occ. eigenvalues --   -1.34858  -1.34555  -1.34208  -1.34058  -1.33922
 Alpha  occ. eigenvalues --   -1.33443  -1.33311  -1.33195  -1.32850  -1.32398
 Alpha  occ. eigenvalues --   -1.31589  -1.31358  -1.29722  -1.24743  -1.23386
 Alpha  occ. eigenvalues --   -1.22210  -1.21963  -1.21719  -1.17025  -1.14049
 Alpha  occ. eigenvalues --   -1.11866  -0.97157  -0.95367  -0.94288  -0.92366
 Alpha  occ. eigenvalues --   -0.91131  -0.90876  -0.88118  -0.87703  -0.86858
 Alpha  occ. eigenvalues --   -0.84353  -0.83484  -0.81944  -0.80589  -0.80196
 Alpha  occ. eigenvalues --   -0.79409  -0.78007  -0.77187  -0.76538  -0.75414
 Alpha  occ. eigenvalues --   -0.74565  -0.73720  -0.73274  -0.72969  -0.72086
 Alpha  occ. eigenvalues --   -0.71891  -0.71638  -0.71597  -0.71306  -0.71113
 Alpha  occ. eigenvalues --   -0.70846  -0.69849  -0.69434  -0.69229  -0.68425
 Alpha  occ. eigenvalues --   -0.68361  -0.68147  -0.67975  -0.67863  -0.65903
 Alpha  occ. eigenvalues --   -0.65452  -0.65423  -0.64356  -0.64036  -0.63054
 Alpha  occ. eigenvalues --   -0.62850  -0.62487  -0.62315  -0.62139  -0.61712
 Alpha  occ. eigenvalues --   -0.61470  -0.60922  -0.60849  -0.59946  -0.59653
 Alpha  occ. eigenvalues --   -0.58718  -0.58685  -0.58480  -0.58209  -0.57825
 Alpha  occ. eigenvalues --   -0.57567  -0.57291  -0.56936  -0.56796  -0.56601
 Alpha  occ. eigenvalues --   -0.56252  -0.55935  -0.55495  -0.55394  -0.55100
 Alpha  occ. eigenvalues --   -0.55062  -0.54969  -0.54600  -0.54334  -0.54225
 Alpha  occ. eigenvalues --   -0.53883  -0.53596  -0.53481  -0.53382  -0.53053
 Alpha  occ. eigenvalues --   -0.52969  -0.52902  -0.52816  -0.52459  -0.52262
 Alpha  occ. eigenvalues --   -0.52163  -0.52125  -0.52010  -0.51706  -0.51600
 Alpha  occ. eigenvalues --   -0.51236  -0.51193  -0.50994  -0.50921  -0.50798
 Alpha  occ. eigenvalues --   -0.50618  -0.50598  -0.50541  -0.50508  -0.50305
 Alpha  occ. eigenvalues --   -0.49959  -0.49691  -0.49240  -0.48713  -0.48209
 Alpha  occ. eigenvalues --   -0.47753  -0.47565  -0.47190  -0.46667  -0.46502
 Alpha  occ. eigenvalues --   -0.46368  -0.46247  -0.45943  -0.45724  -0.44909
 Alpha  occ. eigenvalues --   -0.43860  -0.43605  -0.43210  -0.42703  -0.42355
 Alpha  occ. eigenvalues --   -0.41319
 Alpha virt. eigenvalues --   -0.05414  -0.04614   0.06083   0.07646   0.08571
 Alpha virt. eigenvalues --    0.08874   0.09435   0.09595   0.09911   0.10381
 Alpha virt. eigenvalues --    0.10972   0.11420   0.12194   0.12808   0.13347

  Beta  occ. eigenvalues --  -24.84968 -24.84831 -24.84652 -24.84515 -24.84438
  Beta  occ. eigenvalues --  -24.84421 -24.84282 -24.84093 -24.83954 -24.83928
  Beta  occ. eigenvalues --  -24.83899 -24.83818 -24.83766 -24.83727 -24.83711
  Beta  occ. eigenvalues --  -24.83445 -24.83345 -24.83130 -24.82654 -24.82505
  Beta  occ. eigenvalues --  -24.82010 -19.33998 -19.33694 -19.33603 -19.32563
  Beta  occ. eigenvalues --  -19.30810 -19.29749 -14.63155 -14.58570 -14.55753
  Beta  occ. eigenvalues --  -10.60635 -10.60303 -10.60199 -10.54588 -10.54554
  Beta  occ. eigenvalues --  -10.53922 -10.52316 -10.52142 -10.50455 -10.49436
  Beta  occ. eigenvalues --  -10.48478 -10.48030 -10.39141 -10.36782 -10.35271
  Beta  occ. eigenvalues --  -10.34139 -10.32878 -10.32079 -10.31852 -10.31045
  Beta  occ. eigenvalues --  -10.30916  -1.44282  -1.43992  -1.43728  -1.40798
  Beta  occ. eigenvalues --   -1.40415  -1.40130  -1.38861  -1.37742  -1.37503
  Beta  occ. eigenvalues --   -1.34858  -1.34555  -1.34208  -1.34058  -1.33922
  Beta  occ. eigenvalues --   -1.33443  -1.33311  -1.33192  -1.32850  -1.32395
  Beta  occ. eigenvalues --   -1.31589  -1.31356  -1.28817  -1.23994  -1.22940
  Beta  occ. eigenvalues --   -1.22210  -1.21963  -1.21719  -1.15600  -1.12914
  Beta  occ. eigenvalues --   -1.11592  -0.96820  -0.95205  -0.94267  -0.92245
  Beta  occ. eigenvalues --   -0.90977  -0.90812  -0.87933  -0.87571  -0.86791
  Beta  occ. eigenvalues --   -0.84199  -0.83283  -0.81834  -0.80385  -0.80096
  Beta  occ. eigenvalues --   -0.79327  -0.77878  -0.77090  -0.76500  -0.75095
  Beta  occ. eigenvalues --   -0.74427  -0.73653  -0.73266  -0.72966  -0.72047
  Beta  occ. eigenvalues --   -0.71823  -0.71637  -0.71579  -0.71279  -0.71063
  Beta  occ. eigenvalues --   -0.70825  -0.69512  -0.69229  -0.68742  -0.68359
  Beta  occ. eigenvalues --   -0.68150  -0.68024  -0.67887  -0.67010  -0.65882
  Beta  occ. eigenvalues --   -0.65413  -0.65335  -0.64224  -0.63648  -0.62836
  Beta  occ. eigenvalues --   -0.62581  -0.62386  -0.61944  -0.61837  -0.61676
  Beta  occ. eigenvalues --   -0.61265  -0.60731  -0.59756  -0.59446  -0.59145
  Beta  occ. eigenvalues --   -0.58673  -0.58592  -0.58200  -0.57977  -0.57750
  Beta  occ. eigenvalues --   -0.57509  -0.57276  -0.56828  -0.56707  -0.56541
  Beta  occ. eigenvalues --   -0.56186  -0.55782  -0.55457  -0.55305  -0.55072
  Beta  occ. eigenvalues --   -0.55053  -0.54616  -0.54522  -0.54304  -0.54124
  Beta  occ. eigenvalues --   -0.53815  -0.53578  -0.53355  -0.53111  -0.52964
  Beta  occ. eigenvalues --   -0.52890  -0.52774  -0.52481  -0.52431  -0.52155
  Beta  occ. eigenvalues --   -0.52133  -0.52089  -0.51964  -0.51678  -0.51587
  Beta  occ. eigenvalues --   -0.51137  -0.51009  -0.50959  -0.50890  -0.50671
  Beta  occ. eigenvalues --   -0.50598  -0.50561  -0.50514  -0.50476  -0.50302
  Beta  occ. eigenvalues --   -0.49682  -0.49060  -0.48948  -0.48564  -0.47934
  Beta  occ. eigenvalues --   -0.47433  -0.47192  -0.46610  -0.46435  -0.46423
  Beta  occ. eigenvalues --   -0.46276  -0.45806  -0.45328  -0.44773  -0.43897
  Beta  occ. eigenvalues --   -0.43452  -0.42944  -0.41858  -0.40567  -0.40314
  Beta virt. eigenvalues --   -0.28049  -0.04574  -0.03469   0.06913   0.08030
  Beta virt. eigenvalues --    0.08598   0.08923   0.09605   0.09638   0.10000
  Beta virt. eigenvalues --    0.10506   0.11083   0.11531   0.12291   0.12844

 Mulliken charges and spin densities:
               1          2
     1  O   -0.453338   0.107287
     2  C    0.864050  -0.053420
     3  N   -0.523043   0.218927
     4  C   -0.083282   0.000373
     5  C   -0.224281   0.028396
     6  C   -0.273757   0.002715
     7  C    0.543041  -0.000201
     8  F   -0.273150   0.000324
     9  F   -0.281678   0.000170
    10  C    0.772213   0.000000
    11  F   -0.256027   0.000007
    12  F   -0.263621   0.000015
    13  O   -0.512785   0.000001
    14  C    0.991292  -0.000001
    15  F   -0.245401   0.000000
    16  F   -0.247238   0.000000
    17  F   -0.246467   0.000000
    18  C    0.859601  -0.070689
    19  O   -0.456363   0.024500
    20  N   -0.449406   0.506591
    21  C   -0.103644   0.001387
    22  C   -0.225039   0.068188
    23  C   -0.265102   0.006679
    24  C    0.549359  -0.000351
    25  F   -0.276411   0.000110
    26  F   -0.279527   0.000864
    27  C    0.749171  -0.000128
    28  F   -0.268121   0.000250
    29  F   -0.257664   0.000016
    30  O   -0.488919  -0.000005
    31  C    0.979780  -0.000005
    32  F   -0.244648   0.000009
    33  F   -0.244288   0.000018
    34  F   -0.241944   0.000000
    35  C    0.866449  -0.111132
    36  O   -0.402318   0.244147
    37  N   -0.574122  -0.018205
    38  C   -0.079691   0.002057
    39  C   -0.211079   0.000514
    40  C   -0.266248   0.000095
    41  C    0.547050   0.000086
    42  F   -0.279900   0.000005
    43  F   -0.278818   0.000041
    44  C    0.763477  -0.000006
    45  F   -0.262645   0.000001
    46  F   -0.264066   0.000000
    47  O   -0.515212   0.000001
    48  C    0.991356   0.000000
    49  F   -0.243397   0.000000
    50  F   -0.244934   0.000000
    51  F   -0.248061   0.000000
    52  H    0.186078   0.006635
    53  H    0.186850   0.003183
    54  H    0.147874  -0.001111
    55  H    0.154462   0.000329
    56  H    0.167890   0.000209
    57  H    0.167671   0.002161
    58  H    0.215292   0.010778
    59  H    0.213345   0.015758
    60  H    0.166185  -0.002599
    61  H    0.173838  -0.000365
    62  H    0.179571   0.005752
    63  H    0.170105   0.000268
    64  H    0.173349  -0.000687
    65  H    0.174659  -0.000508
    66  H    0.140506   0.000293
    67  H    0.143599   0.000156
    68  H    0.158647   0.000027
    69  H    0.158874   0.000090
 Sum of Mulliken charges =   1.00000   1.00000

 Dipole moment (field-independent basis, Debye):
    X=              7.3095    Y=              0.7532    Z=              1.0629  Tot=              7.4247
 Quadrupole moment (field-independent basis, Debye-Ang):
   XX=           -256.6878   YY=           -285.8321   ZZ=           -264.5990
   XY=              2.8916   XZ=             -9.9501   YZ=             -6.5759

 Normal termination of Gaussian 09 at Sun Feb  2 05:08:08 2025.
