 Gaussian 09, Revision D.01,
 Gaussian 09:  ES64L-G09RevD.01 24-Apr-2013

 ----------------------------------------------------------------------
 #p CAM-B3LYP/6-31G(d,p) SCRF=(PCM,Solvent=Generic,Read) NoSymm out=wfn
 ----------------------------------------------------------------------

 ---------------
 Title TAIC0_neu
 ---------------
 Symbolic Z-matrix:
 Charge =  0 Multiplicity = 1

                          Input orientation:
 ---------------------------------------------------------------------
 Center     Atomic      Atomic             Coordinates (Angstroms)
 Number     Number       Type             X           Y           Z
 ---------------------------------------------------------------------
      1          8           0       -1.383650    1.893238    0.446146
      2          6           0       -0.471669    1.063162    0.443179
      3          7           0        0.832401    1.416550    0.714859
      4          6           0        1.133829    2.826155    0.960154
      5          6           0        1.408642    3.579207   -0.347719
      6          6           0        1.967607    4.989863   -0.144472
      7          6           0        1.095050    5.975191    0.630972
      8          9           0        0.923653    5.508219    1.899133
      9          9           0        1.816097    7.130629    0.765596
     10          6           0       -0.261896    6.296672   -0.023145
     11          9           0       -1.019273    5.176876   -0.105817
     12          9           0       -0.066630    6.743054   -1.289466
     13          8           0       -0.984756    7.250893    0.716291
     14          6           0       -1.992430    7.794608   -0.084837
     15          9           0       -2.881256    8.418376    0.716957
     16          9           0       -2.648568    6.854500   -0.790047
     17          9           0       -1.470595    8.711918   -0.922157
     18          6           0        1.885447    0.529989    0.646172
     19          8           0        3.058729    0.909088    0.700380
     20          7           0        1.556915   -0.799839    0.492673
     21          6           0        2.643203   -1.780031    0.486852
     22          6           0        3.214455   -1.975621   -0.923420
     23          6           0        4.553327   -2.723103   -0.964794
     24          6           0        4.496180   -4.144401   -0.410553
     25          9           0        3.480182   -4.815923   -1.014145
     26          9           0        4.182972   -4.076014    0.910695
     27          6           0        5.832297   -4.905085   -0.616590
     28          9           0        6.154487   -4.855302   -1.944382
     29          9           0        6.854422   -4.265135    0.011563
     30          8           0        5.903371   -6.267975   -0.281371
     31          6           0        5.491185   -6.484624    1.035098
     32          9           0        5.960760   -5.540977    1.869670
     33          9           0        4.148445   -6.519193    1.089993
     34          9           0        5.961839   -7.681843    1.439424
     35          6           0        0.277282   -1.237511    0.222449
     36          8           0        0.024533   -2.429080    0.036204
     37          7           0       -0.700989   -0.266988    0.160616
     38          6           0       -2.072807   -0.680777   -0.135384
     39          6           0       -2.847784   -1.011084    1.145644
     40          6           0       -4.362032   -1.149793    0.942199
     41          6           0       -4.767234   -2.300259    0.021684
     42          9           0       -4.157452   -3.439640    0.447712
     43          9           0       -4.286430   -2.052927   -1.229773
     44          6           0       -6.294414   -2.503837   -0.042376
     45          9           0       -6.770996   -2.785635    1.197428
     46          9           0       -6.597372   -3.553799   -0.842854
     47          8           0       -6.955408   -1.345737   -0.498510
     48          6           0       -8.255476   -1.678408   -0.892536
     49          9           0       -8.875054   -2.456522    0.012817
     50          9           0       -8.239755   -2.287842   -2.093265
     51          9           0       -8.960326   -0.532319   -1.015728
     52          1           0        2.005366    2.896488    1.622110
     53          1           0        0.290161    3.281778    1.489364
     54          1           0        2.140981    3.014360   -0.939962
     55          1           0        0.501102    3.612396   -0.961127
     56          1           0        2.929922    4.906739    0.377226
     57          1           0        2.200800    5.421197   -1.125895
     58          1           0        2.265243   -2.731613    0.876496
     59          1           0        3.433062   -1.441606    1.168484
     60          1           0        3.367732   -0.995534   -1.394238
     61          1           0        2.478702   -2.498732   -1.547930
     62          1           0        4.876373   -2.754915   -2.012393
     63          1           0        5.299302   -2.144716   -0.407195
     64          1           0       -2.578660    0.123889   -0.681845
     65          1           0       -2.048127   -1.552558   -0.797547
     66          1           0       -2.682778   -0.218434    1.886636
     67          1           0       -2.446893   -1.929478    1.592340
     68          1           0       -4.812343   -1.306536    1.929863
     69          1           0       -4.753004   -0.203689    0.549723
 ---------------------------------------------------------------------

 SCF Done:  E(RCAM-B3LYP) =  -3522.40247562     A.U. after   13 cycles

 Alpha  occ. eigenvalues --  -24.83341 -24.83338 -24.83276 -24.83065 -24.82874
 Alpha  occ. eigenvalues --  -24.82835 -24.82732 -24.82716 -24.82623 -24.82546
 Alpha  occ. eigenvalues --  -24.82516 -24.82320 -24.81949 -24.81945 -24.81776
 Alpha  occ. eigenvalues --  -24.81013 -24.80806 -24.80675 -24.80626 -24.80587
 Alpha  occ. eigenvalues --  -24.80021 -19.32268 -19.32220 -19.32108 -19.22100
 Alpha  occ. eigenvalues --  -19.21929 -19.21896 -14.48693 -14.48667 -14.48646
 Alpha  occ. eigenvalues --  -10.59044 -10.59032 -10.58943 -10.52631 -10.52441
 Alpha  occ. eigenvalues --  -10.52402 -10.46452 -10.46187 -10.46068 -10.43236
 Alpha  occ. eigenvalues --  -10.43157 -10.43154 -10.31023 -10.30970 -10.30847
 Alpha  occ. eigenvalues --  -10.28908 -10.28845 -10.28685 -10.27756 -10.27641
 Alpha  occ. eigenvalues --  -10.27600  -1.42655  -1.42589  -1.42588  -1.38973
 Alpha  occ. eigenvalues --   -1.38708  -1.38315  -1.36143  -1.35609  -1.35597
 Alpha  occ. eigenvalues --   -1.33205  -1.33086  -1.33035  -1.32516  -1.32379
 Alpha  occ. eigenvalues --   -1.32312  -1.31852  -1.31531  -1.30980  -1.29854
 Alpha  occ. eigenvalues --   -1.29636  -1.29258  -1.20441  -1.20394  -1.20372
 Alpha  occ. eigenvalues --   -1.19894  -1.15229  -1.15180  -1.06769  -1.04199
 Alpha  occ. eigenvalues --   -1.04132  -0.91916  -0.91539  -0.91319  -0.88287
 Alpha  occ. eigenvalues --   -0.87403  -0.87017  -0.83902  -0.82878  -0.82136
 Alpha  occ. eigenvalues --   -0.79734  -0.79157  -0.78789  -0.76178  -0.76018
 Alpha  occ. eigenvalues --   -0.75312  -0.73671  -0.73562  -0.71849  -0.71368
 Alpha  occ. eigenvalues --   -0.71331  -0.71078  -0.70940  -0.70665  -0.70317
 Alpha  occ. eigenvalues --   -0.69936  -0.69886  -0.69764  -0.69411  -0.69058
 Alpha  occ. eigenvalues --   -0.68689  -0.67387  -0.67260  -0.66648  -0.66600
 Alpha  occ. eigenvalues --   -0.66383  -0.65872  -0.63582  -0.63500  -0.63235
 Alpha  occ. eigenvalues --   -0.61973  -0.61101  -0.60856  -0.60721  -0.60134
 Alpha  occ. eigenvalues --   -0.59930  -0.59690  -0.58857  -0.57113  -0.57002
 Alpha  occ. eigenvalues --   -0.56938  -0.56392  -0.56290  -0.56198  -0.55871
 Alpha  occ. eigenvalues --   -0.55630  -0.55370  -0.55240  -0.55196  -0.54337
 Alpha  occ. eigenvalues --   -0.54260  -0.53946  -0.53887  -0.53754  -0.53653
 Alpha  occ. eigenvalues --   -0.53537  -0.52987  -0.52901  -0.52773  -0.52496
 Alpha  occ. eigenvalues --   -0.52445  -0.52093  -0.51891  -0.51735  -0.51533
 Alpha  occ. eigenvalues --   -0.51324  -0.51271  -0.51244  -0.50937  -0.50854
 Alpha  occ. eigenvalues --   -0.50538  -0.50465  -0.50244  -0.50086  -0.49965
 Alpha  occ. eigenvalues --   -0.49752  -0.49695  -0.49552  -0.49250  -0.49221
 Alpha  occ. eigenvalues --   -0.49185  -0.48959  -0.48816  -0.48680  -0.48397
 Alpha  occ. eigenvalues --   -0.48163  -0.48000  -0.47891  -0.47548  -0.47135
 Alpha  occ. eigenvalues --   -0.46145  -0.45774  -0.45484  -0.45205  -0.44976
 Alpha  occ. eigenvalues --   -0.44567  -0.44477  -0.44158  -0.43458  -0.42391
 Alpha  occ. eigenvalues --   -0.41975  -0.41814  -0.40557  -0.40498  -0.40370
 Alpha  occ. eigenvalues --   -0.38067  -0.37913  -0.35640  -0.34467  -0.34365
 Alpha  occ. eigenvalues --   -0.34085
 Alpha virt. eigenvalues --    0.03360   0.03535   0.11013   0.11112   0.11514
 Alpha virt. eigenvalues --    0.11839   0.11935   0.12338   0.14480   0.14705
 Alpha virt. eigenvalues --    0.15284   0.15740   0.16917   0.17041   0.17223

 Mulliken charges:
               1
     1  O   -0.538510
     2  C    0.822344
     3  N   -0.568580
     4  C   -0.053283
     5  C   -0.213038
     6  C   -0.271443
     7  C    0.541348
     8  F   -0.274166
     9  F   -0.288425
    10  C    0.770335
    11  F   -0.252453
    12  F   -0.266870
    13  O   -0.515017
    14  C    0.989075
    15  F   -0.247535
    16  F   -0.246905
    17  F   -0.248437
    18  C    0.822818
    19  O   -0.541705
    20  N   -0.570355
    21  C   -0.056995
    22  C   -0.206797
    23  C   -0.261705
    24  C    0.550316
    25  F   -0.282025
    26  F   -0.281117
    27  C    0.744000
    28  F   -0.271958
    29  F   -0.261322
    30  O   -0.494214
    31  C    0.977871
    32  F   -0.244826
    33  F   -0.243384
    34  F   -0.245380
    35  C    0.818939
    36  O   -0.534328
    37  N   -0.572371
    38  C   -0.057333
    39  C   -0.203865
    40  C   -0.266771
    41  C    0.548142
    42  F   -0.281191
    43  F   -0.278980
    44  C    0.760602
    45  F   -0.264654
    46  F   -0.266396
    47  O   -0.514041
    48  C    0.989663
    49  F   -0.244727
    50  F   -0.245760
    51  F   -0.249171
    52  H    0.145794
    53  H    0.149111
    54  H    0.129711
    55  H    0.133423
    56  H    0.155431
    57  H    0.148627
    58  H    0.155057
    59  H    0.145474
    60  H    0.130397
    61  H    0.135991
    62  H    0.149521
    63  H    0.148800
    64  H    0.145996
    65  H    0.154059
    66  H    0.130392
    67  H    0.134794
    68  H    0.146934
    69  H    0.151069
 Sum of Mulliken charges =   0.00000

 Dipole moment (field-independent basis, Debye):
    X=              1.8269    Y=              1.8166    Z=             -0.3509  Tot=              2.6001
 Quadrupole moment (field-independent basis, Debye-Ang):
   XX=           -288.9892   YY=           -317.5554   ZZ=           -271.6077
   XY=              9.2564   XZ=            -10.2530   YZ=             -8.4497

 Normal termination of Gaussian 09 at Sun Feb  2 05:01:05 2025.
