 Gaussian 09, Revision D.01,
 Gaussian 09:  ES64L-G09RevD.01 24-Apr-2013

 ----------------------------------------------------------------------
 #p CAM-B3LYP/6-31G(d,p) SCRF=(PCM,Solvent=Generic,Read) NoSymm out=wfn
 ----------------------------------------------------------------------

 -------------------
 Title A105268360_p1
 -------------------
 Symbolic Z-matrix:
 Charge =  1 Multiplicity = 2

                          Input orientation:
 ---------------------------------------------------------------------
 Center     Atomic      Atomic             Coordinates (Angstroms)
 Number     Number       Type             X           Y           Z
 ---------------------------------------------------------------------
      1          6           0       -1.203088   -1.956057   -2.699129
      2          6           0       -2.149808   -1.919863   -1.534051
      3          6           0       -3.474436   -2.050399   -1.743826
      4          6           0       -1.566210   -1.885050   -0.139125
      5          7           0       -0.697063   -0.729020    0.144676
      6          6           0       -1.315327    0.633754    0.348855
      7          6           0       -0.392340    1.824310   -0.084010
      8          6           0        0.956313    1.402369   -0.674238
      9          6           0        1.891358    0.711538    0.351775
     10          7           0        1.215081   -0.093506    1.392886
     11          6           0        0.246751   -1.044901    1.151757
     12          8           0        0.152296   -2.056047    1.847132
     13          6           0        1.567482    0.148417    2.792313
     14          6           0        2.942904   -0.354914    3.148684
     15          6           0        3.994597    0.473169    3.283002
     16          6           0        3.059245   -1.821908    3.453827
     17          6           0        3.121813    0.005172   -0.291591
     18          6           0        2.924207   -1.190734   -1.197860
     19          6           0        2.636185   -2.457449   -0.680341
     20          6           0        2.497576   -3.561645   -1.525107
     21          6           0        2.651746   -3.414555   -2.900749
     22          6           0        2.937042   -2.158872   -3.432690
     23          6           0        3.077826   -1.057159   -2.586283
     24          8           0        0.723404    0.647507   -1.856465
     25          8           0       -0.180944    2.705980    1.029371
     26          6           0       -2.732841    0.839200   -0.253112
     27          6           0       -3.412297    2.151730    0.087941
     28          6           0       -3.844450    3.003793   -0.941060
     29          6           0       -4.482373    4.208875   -0.644221
     30          6           0       -4.698691    4.574259    0.682084
     31          6           0       -4.285142    3.731698    1.713482
     32          6           0       -3.650646    2.523137    1.418763
     33          1           0       -0.315183   -2.546910   -2.458641
     34          1           0       -0.901024   -0.945808   -2.981926
     35          1           0       -1.665564   -2.416496   -3.580590
     36          1           0       -3.885815   -2.126726   -2.748049
     37          1           0       -4.186317   -2.088622   -0.921537
     38          1           0       -0.978762   -2.809008   -0.041577
     39          1           0       -2.337727   -1.927963    0.641506
     40          1           0       -1.447925    0.708333    1.437863
     41          1           0       -0.901751    2.408168   -0.860099
     42          1           0        1.478424    2.309020   -1.007285
     43          1           0        2.320455    1.554371    0.913366
     44          1           0        0.824390   -0.310283    3.457762
     45          1           0        1.485631    1.229294    2.967355
     46          1           0        3.900494    1.538646    3.103038
     47          1           0        4.973141    0.108374    3.578073
     48          1           0        2.376651   -2.095738    4.265116
     49          1           0        2.811434   -2.424486    2.577190
     50          1           0        4.072014   -2.093413    3.769078
     51          1           0        3.813509   -0.312422    0.496285
     52          1           0        3.680790    0.767586   -0.851355
     53          1           0        2.525194   -2.602465    0.390777
     54          1           0        2.279943   -4.540651   -1.102495
     55          1           0        2.547298   -4.276755   -3.555604
     56          1           0        3.055235   -2.033584   -4.504670
     57          1           0        3.295217   -0.083462   -3.020676
     58          1           0        0.479100   -0.248208   -1.543810
     59          1           0       -0.233978    3.618229    0.685233
     60          1           0       -2.673303    0.743742   -1.343386
     61          1           0       -3.408651    0.058032    0.109005
     62          1           0       -3.686242    2.735047   -1.983366
     63          1           0       -4.813256    4.861155   -1.449397
     64          1           0       -5.194902    5.513931    0.913150
     65          1           0       -4.456263    4.018304    2.747573
     66          1           0       -3.342428    1.877941    2.239403
 ---------------------------------------------------------------------

 SCF Done:  E(UCAM-B3LYP) =  -1383.51481374     A.U. after   32 cycles

 Alpha  occ. eigenvalues --  -19.30231 -19.29337 -19.29021 -14.57510 -14.51904
 Alpha  occ. eigenvalues --  -10.48143 -10.41187 -10.40062 -10.38882 -10.38006
 Alpha  occ. eigenvalues --  -10.37900 -10.36494 -10.35948 -10.35420 -10.34785
 Alpha  occ. eigenvalues --  -10.34670 -10.34329 -10.34325 -10.34111 -10.33552
 Alpha  occ. eigenvalues --  -10.32210 -10.32136 -10.32082 -10.31693 -10.30637
 Alpha  occ. eigenvalues --  -10.30401 -10.30360 -10.30180 -10.30115 -10.30062
 Alpha  occ. eigenvalues --  -10.29924 -10.29772  -1.23198  -1.18881  -1.16666
 Alpha  occ. eigenvalues --   -1.13235  -1.08932  -1.02464  -0.98208  -0.97152
 Alpha  occ. eigenvalues --   -0.95682  -0.94398  -0.93088  -0.91620  -0.90113
 Alpha  occ. eigenvalues --   -0.88158  -0.86603  -0.86323  -0.85017  -0.82572
 Alpha  occ. eigenvalues --   -0.82297  -0.81361  -0.80152  -0.78479  -0.75823
 Alpha  occ. eigenvalues --   -0.74407  -0.73725  -0.71974  -0.71080  -0.69711
 Alpha  occ. eigenvalues --   -0.68843  -0.67797  -0.66858  -0.65906  -0.64839
 Alpha  occ. eigenvalues --   -0.64283  -0.63445  -0.62178  -0.61718  -0.61005
 Alpha  occ. eigenvalues --   -0.60687  -0.59978  -0.59726  -0.59391  -0.58690
 Alpha  occ. eigenvalues --   -0.58098  -0.57668  -0.56878  -0.56366  -0.55925
 Alpha  occ. eigenvalues --   -0.55822  -0.55528  -0.54551  -0.53846  -0.53485
 Alpha  occ. eigenvalues --   -0.53314  -0.52805  -0.52361  -0.52167  -0.51433
 Alpha  occ. eigenvalues --   -0.50930  -0.50745  -0.50005  -0.49712  -0.49171
 Alpha  occ. eigenvalues --   -0.48715  -0.48251  -0.47839  -0.47681  -0.47410
 Alpha  occ. eigenvalues --   -0.47263  -0.46652  -0.46393  -0.45707  -0.44811
 Alpha  occ. eigenvalues --   -0.44267  -0.43883  -0.43031  -0.41818  -0.40336
 Alpha  occ. eigenvalues --   -0.38815  -0.38097  -0.37722  -0.37423  -0.35297
 Alpha  occ. eigenvalues --   -0.34392  -0.33610
 Alpha virt. eigenvalues --   -0.04096  -0.03399  -0.02080  -0.00573   0.00226
 Alpha virt. eigenvalues --    0.00652   0.01492   0.04359   0.05041   0.06878
 Alpha virt. eigenvalues --    0.07892   0.08828   0.09205   0.09749   0.10250

  Beta  occ. eigenvalues --  -19.30057 -19.29308 -19.28858 -14.56674 -14.51815
  Beta  occ. eigenvalues --  -10.48238 -10.41139 -10.39998 -10.38848 -10.38007
  Beta  occ. eigenvalues --  -10.37921 -10.36359 -10.35850 -10.35421 -10.34564
  Beta  occ. eigenvalues --  -10.34516 -10.34272 -10.34271 -10.34123 -10.33640
  Beta  occ. eigenvalues --  -10.32207 -10.32129 -10.32039 -10.31693 -10.30635
  Beta  occ. eigenvalues --  -10.30399 -10.30360 -10.30180 -10.30115 -10.30060
  Beta  occ. eigenvalues --  -10.29923 -10.29760  -1.22696  -1.18573  -1.16547
  Beta  occ. eigenvalues --   -1.11991  -1.08653  -1.02074  -0.98200  -0.96847
  Beta  occ. eigenvalues --   -0.95339  -0.94320  -0.92951  -0.91254  -0.90000
  Beta  occ. eigenvalues --   -0.87932  -0.86446  -0.86317  -0.84749  -0.82481
  Beta  occ. eigenvalues --   -0.82122  -0.81199  -0.79947  -0.78344  -0.75635
  Beta  occ. eigenvalues --   -0.74289  -0.73435  -0.71944  -0.70724  -0.69478
  Beta  occ. eigenvalues --   -0.68559  -0.67601  -0.66607  -0.65705  -0.64648
  Beta  occ. eigenvalues --   -0.64061  -0.63089  -0.62081  -0.61544  -0.60696
  Beta  occ. eigenvalues --   -0.60447  -0.59622  -0.59332  -0.59217  -0.58574
  Beta  occ. eigenvalues --   -0.57915  -0.57435  -0.56742  -0.56110  -0.55893
  Beta  occ. eigenvalues --   -0.55514  -0.55280  -0.54411  -0.53495  -0.53372
  Beta  occ. eigenvalues --   -0.53145  -0.52713  -0.52161  -0.51931  -0.51378
  Beta  occ. eigenvalues --   -0.50694  -0.50185  -0.49500  -0.49255  -0.48961
  Beta  occ. eigenvalues --   -0.48519  -0.48099  -0.47648  -0.47530  -0.47325
  Beta  occ. eigenvalues --   -0.47047  -0.46580  -0.46238  -0.45568  -0.44338
  Beta  occ. eigenvalues --   -0.43861  -0.43729  -0.42558  -0.39452  -0.38022
  Beta  occ. eigenvalues --   -0.37860  -0.37189  -0.35489  -0.35212  -0.34386
  Beta  occ. eigenvalues --   -0.33554
  Beta virt. eigenvalues --   -0.24767  -0.02902  -0.02668  -0.01502  -0.00250
  Beta virt. eigenvalues --    0.00250   0.00678   0.01556   0.04452   0.05144
  Beta virt. eigenvalues --    0.06980   0.07945   0.08940   0.09278   0.09843

 Mulliken charges and spin densities:
               1          2
     1  C   -0.390452   0.001268
     2  C    0.133990  -0.000039
     3  C   -0.277666   0.009377
     4  C   -0.096828  -0.001807
     5  N   -0.542874   0.042627
     6  C    0.072496  -0.003493
     7  C    0.140310   0.019074
     8  C    0.133774   0.029499
     9  C    0.011940   0.011624
    10  N   -0.386604   0.391571
    11  C    0.733127  -0.054796
    12  O   -0.472743   0.063227
    13  C   -0.143873  -0.019681
    14  C    0.128732   0.021550
    15  C   -0.268508   0.032493
    16  C   -0.358280   0.001522
    17  C   -0.246763   0.040361
    18  C    0.091058   0.097687
    19  C   -0.120020   0.036566
    20  C   -0.090908  -0.016448
    21  C   -0.067670   0.167777
    22  C   -0.090342  -0.073566
    23  C   -0.081946   0.108036
    24  O   -0.532459   0.060169
    25  O   -0.555561   0.010587
    26  C   -0.263909   0.003154
    27  C    0.082962   0.000352
    28  C   -0.137987   0.000058
    29  C   -0.094041   0.000241
    30  C   -0.095510   0.001148
    31  C   -0.099042  -0.000651
    32  C   -0.114699   0.001209
    33  H    0.110818  -0.000627
    34  H    0.134723  -0.000366
    35  H    0.134844   0.000024
    36  H    0.118067  -0.000258
    37  H    0.111548  -0.000337
    38  H    0.159318   0.000058
    39  H    0.133256   0.003091
    40  H    0.143779   0.001479
    41  H    0.140285   0.000043
    42  H    0.141703  -0.001069
    43  H    0.170908   0.002415
    44  H    0.176439   0.000195
    45  H    0.174032   0.017859
    46  H    0.117720  -0.001003
    47  H    0.135823   0.000090
    48  H    0.142625  -0.000599
    49  H    0.130163   0.000357
    50  H    0.130773   0.001447
    51  H    0.164687   0.006868
    52  H    0.155862   0.004236
    53  H    0.125035  -0.002302
    54  H    0.141188   0.000184
    55  H    0.146023  -0.006909
    56  H    0.138259   0.002281
    57  H    0.135802  -0.004713
    58  H    0.344300  -0.003577
    59  H    0.344222  -0.000320
    60  H    0.133219  -0.000209
    61  H    0.138993   0.001082
    62  H    0.100768  -0.000008
    63  H    0.110110  -0.000012
    64  H    0.109816  -0.000050
    65  H    0.109462   0.000021
    66  H    0.095726  -0.000066
 Sum of Mulliken charges =   1.00000   1.00000

 Dipole moment (field-independent basis, Debye):
    X=              5.9305    Y=              0.3403    Z=             -1.1091  Tot=              6.0429
 Quadrupole moment (field-independent basis, Debye-Ang):
   XX=           -146.9911   YY=           -151.2246   ZZ=           -158.3742
   XY=            -12.8213   XZ=              1.1875   YZ=             13.4355

 Normal termination of Gaussian 09 at Mon Mar  4 23:17:09 2024.
