 Gaussian 09, Revision D.01,
 Gaussian 09:  ES64L-G09RevD.01 24-Apr-2013

 ----------------------------------------------------------------------
 #p CAM-B3LYP/6-31G(d,p) SCRF=(PCM,Solvent=Generic,Read) NoSymm out=wfn
 ----------------------------------------------------------------------

 ------------------
 Title A105268360_0
 ------------------
 Symbolic Z-matrix:
 Charge =  0 Multiplicity = 1

                          Input orientation:
 ---------------------------------------------------------------------
 Center     Atomic      Atomic             Coordinates (Angstroms)
 Number     Number       Type             X           Y           Z
 ---------------------------------------------------------------------
      1          6           0       -1.203088   -1.956057   -2.699129
      2          6           0       -2.149808   -1.919863   -1.534051
      3          6           0       -3.474436   -2.050399   -1.743826
      4          6           0       -1.566210   -1.885050   -0.139125
      5          7           0       -0.697063   -0.729020    0.144676
      6          6           0       -1.315327    0.633754    0.348855
      7          6           0       -0.392340    1.824310   -0.084010
      8          6           0        0.956313    1.402369   -0.674238
      9          6           0        1.891358    0.711538    0.351775
     10          7           0        1.215081   -0.093506    1.392886
     11          6           0        0.246751   -1.044901    1.151757
     12          8           0        0.152296   -2.056047    1.847132
     13          6           0        1.567482    0.148417    2.792313
     14          6           0        2.942904   -0.354914    3.148684
     15          6           0        3.994597    0.473169    3.283002
     16          6           0        3.059245   -1.821908    3.453827
     17          6           0        3.121813    0.005172   -0.291591
     18          6           0        2.924207   -1.190734   -1.197860
     19          6           0        2.636185   -2.457449   -0.680341
     20          6           0        2.497576   -3.561645   -1.525107
     21          6           0        2.651746   -3.414555   -2.900749
     22          6           0        2.937042   -2.158872   -3.432690
     23          6           0        3.077826   -1.057159   -2.586283
     24          8           0        0.723404    0.647507   -1.856465
     25          8           0       -0.180944    2.705980    1.029371
     26          6           0       -2.732841    0.839200   -0.253112
     27          6           0       -3.412297    2.151730    0.087941
     28          6           0       -3.844450    3.003793   -0.941060
     29          6           0       -4.482373    4.208875   -0.644221
     30          6           0       -4.698691    4.574259    0.682084
     31          6           0       -4.285142    3.731698    1.713482
     32          6           0       -3.650646    2.523137    1.418763
     33          1           0       -0.315183   -2.546910   -2.458641
     34          1           0       -0.901024   -0.945808   -2.981926
     35          1           0       -1.665564   -2.416496   -3.580590
     36          1           0       -3.885815   -2.126726   -2.748049
     37          1           0       -4.186317   -2.088622   -0.921537
     38          1           0       -0.978762   -2.809008   -0.041577
     39          1           0       -2.337727   -1.927963    0.641506
     40          1           0       -1.447925    0.708333    1.437863
     41          1           0       -0.901751    2.408168   -0.860099
     42          1           0        1.478424    2.309020   -1.007285
     43          1           0        2.320455    1.554371    0.913366
     44          1           0        0.824390   -0.310283    3.457762
     45          1           0        1.485631    1.229294    2.967355
     46          1           0        3.900494    1.538646    3.103038
     47          1           0        4.973141    0.108374    3.578073
     48          1           0        2.376651   -2.095738    4.265116
     49          1           0        2.811434   -2.424486    2.577190
     50          1           0        4.072014   -2.093413    3.769078
     51          1           0        3.813509   -0.312422    0.496285
     52          1           0        3.680790    0.767586   -0.851355
     53          1           0        2.525194   -2.602465    0.390777
     54          1           0        2.279943   -4.540651   -1.102495
     55          1           0        2.547298   -4.276755   -3.555604
     56          1           0        3.055235   -2.033584   -4.504670
     57          1           0        3.295217   -0.083462   -3.020676
     58          1           0        0.479100   -0.248208   -1.543810
     59          1           0       -0.233978    3.618229    0.685233
     60          1           0       -2.673303    0.743742   -1.343386
     61          1           0       -3.408651    0.058032    0.109005
     62          1           0       -3.686242    2.735047   -1.983366
     63          1           0       -4.813256    4.861155   -1.449397
     64          1           0       -5.194902    5.513931    0.913150
     65          1           0       -4.456263    4.018304    2.747573
     66          1           0       -3.342428    1.877941    2.239403
 ---------------------------------------------------------------------

 SCF Done:  E(RCAM-B3LYP) =  -1383.77729606     A.U. after   13 cycles

 Alpha  occ. eigenvalues --  -19.22411 -19.20726 -19.18707 -14.43160 -14.42581
 Alpha  occ. eigenvalues --  -10.38326 -10.31285 -10.30977 -10.30918 -10.30484
 Alpha  occ. eigenvalues --  -10.29036 -10.28903 -10.27408 -10.26837 -10.26703
 Alpha  occ. eigenvalues --  -10.26611 -10.26426 -10.26409 -10.26404 -10.26330
 Alpha  occ. eigenvalues --  -10.26302 -10.26218 -10.25912 -10.25714 -10.25652
 Alpha  occ. eigenvalues --  -10.25587 -10.25430 -10.25402 -10.24720 -10.24591
 Alpha  occ. eigenvalues --  -10.24524 -10.24420  -1.12857  -1.10461  -1.08864
 Alpha  occ. eigenvalues --   -1.01563  -1.00097  -0.94024  -0.93262  -0.88874
 Alpha  occ. eigenvalues --   -0.88184  -0.87261  -0.86153  -0.83310  -0.82441
 Alpha  occ. eigenvalues --   -0.81633  -0.81238  -0.78479  -0.77454  -0.76147
 Alpha  occ. eigenvalues --   -0.75581  -0.74399  -0.72127  -0.70982  -0.68033
 Alpha  occ. eigenvalues --   -0.67239  -0.66756  -0.64914  -0.64495  -0.62618
 Alpha  occ. eigenvalues --   -0.61050  -0.59980  -0.58887  -0.58199  -0.57744
 Alpha  occ. eigenvalues --   -0.57465  -0.55967  -0.55160  -0.53717  -0.53222
 Alpha  occ. eigenvalues --   -0.52916  -0.52181  -0.51972  -0.51812  -0.51397
 Alpha  occ. eigenvalues --   -0.51173  -0.50879  -0.49742  -0.49628  -0.49106
 Alpha  occ. eigenvalues --   -0.48473  -0.48286  -0.47854  -0.47244  -0.47062
 Alpha  occ. eigenvalues --   -0.46527  -0.46452  -0.45412  -0.44877  -0.44174
 Alpha  occ. eigenvalues --   -0.43565  -0.43261  -0.42721  -0.42218  -0.42175
 Alpha  occ. eigenvalues --   -0.42035  -0.41737  -0.41189  -0.40836  -0.40578
 Alpha  occ. eigenvalues --   -0.40239  -0.40059  -0.39675  -0.39185  -0.38703
 Alpha  occ. eigenvalues --   -0.37829  -0.36399  -0.33701  -0.32301  -0.30892
 Alpha  occ. eigenvalues --   -0.30706  -0.30528  -0.29927  -0.29741  -0.29206
 Alpha  occ. eigenvalues --   -0.29093  -0.27623
 Alpha virt. eigenvalues --    0.04226   0.04547   0.05045   0.05145   0.06569
 Alpha virt. eigenvalues --    0.07139   0.07711   0.11008   0.12464   0.13804
 Alpha virt. eigenvalues --    0.14383   0.14549   0.15428   0.16003   0.16260

 Mulliken charges:
               1
     1  C   -0.388694
     2  C    0.141955
     3  C   -0.291469
     4  C   -0.080826
     5  N   -0.552718
     6  C    0.096359
     7  C    0.148486
     8  C    0.145180
     9  C    0.050710
    10  N   -0.478540
    11  C    0.725599
    12  O   -0.542266
    13  C   -0.109967
    14  C    0.156162
    15  C   -0.292240
    16  C   -0.356721
    17  C   -0.227185
    18  C    0.082904
    19  C   -0.135386
    20  C   -0.104021
    21  C   -0.101526
    22  C   -0.097984
    23  C   -0.103524
    24  O   -0.576813
    25  O   -0.565672
    26  C   -0.262760
    27  C    0.089920
    28  C   -0.137465
    29  C   -0.096085
    30  C   -0.099143
    31  C   -0.100907
    32  C   -0.112474
    33  H    0.123909
    34  H    0.136315
    35  H    0.112899
    36  H    0.097552
    37  H    0.094976
    38  H    0.148473
    39  H    0.105513
    40  H    0.123737
    41  H    0.105249
    42  H    0.095227
    43  H    0.118091
    44  H    0.133075
    45  H    0.123216
    46  H    0.093941
    47  H    0.099672
    48  H    0.120287
    49  H    0.135847
    50  H    0.103337
    51  H    0.122683
    52  H    0.100558
    53  H    0.105618
    54  H    0.097292
    55  H    0.092934
    56  H    0.093663
    57  H    0.091700
    58  H    0.341229
    59  H    0.326470
    60  H    0.123386
    61  H    0.124511
    62  H    0.096491
    63  H    0.097695
    64  H    0.095683
    65  H    0.098871
    66  H    0.097011
 Sum of Mulliken charges =   0.00000

 Dipole moment (field-independent basis, Debye):
    X=             -0.6418    Y=              3.2238    Z=             -0.6628  Tot=              3.3533
 Quadrupole moment (field-independent basis, Debye-Ang):
   XX=           -187.1653   YY=           -179.1131   ZZ=           -187.7603
   XY=             -1.5897   XZ=              1.6552   YZ=              4.5439

 Normal termination of Gaussian 09 at Mon Mar  4 23:13:45 2024.
