 Gaussian 09, Revision D.01,
 Gaussian 09:  ES64L-G09RevD.01 24-Apr-2013

 ----------------------------------------------------------------------
 #p CAM-B3LYP/6-31G(d,p) SCRF=(PCM,Solvent=Generic,Read) NoSymm out=wfn
 ----------------------------------------------------------------------

 --------------------
 Title A1462740670_p1
 --------------------
 Symbolic Z-matrix:
 Charge =  1 Multiplicity = 2

                          Input orientation:
 ---------------------------------------------------------------------
 Center     Atomic      Atomic             Coordinates (Angstroms)
 Number     Number       Type             X           Y           Z
 ---------------------------------------------------------------------
      1          6           0       -2.236741   -2.812556   -0.373150
      2          6           0       -1.081765   -2.134296   -0.498580
      3          7           0        0.122836   -2.824562   -0.551407
      4          6           0        0.157194   -4.280792   -0.720143
      5          6           0        1.351573   -2.176147   -0.480417
      6          8           0        2.406232   -2.777269   -0.680302
      7          7           0        1.308718   -0.835952   -0.164101
      8          6           0        2.609082   -0.196846    0.009256
      9          9           0        3.233227   -0.158595   -1.203859
     10          9           0        3.382726   -1.038602    0.773110
     11          6           0        2.770856    1.199528    0.693212
     12          9           0        4.112172    1.398715    0.943430
     13          8           0        2.355528    2.383609    0.015030
     14          6           0        2.955337    2.550456   -1.245143
     15          9           0        4.261357    2.236719   -1.221348
     16          9           0        2.833772    3.842795   -1.607133
     17          9           0        2.329798    1.792219   -2.162058
     18          6           0        2.094438    1.102750    2.061362
     19          9           0        2.238458    2.249517    2.770806
     20          9           0        0.762786    0.868641    1.974626
     21          9           0        2.605417    0.108218    2.823036
     22          6           0        0.211244   -0.099538   -0.501471
     23          8           0        0.299944    1.111599   -0.673840
     24          7           0       -1.007247   -0.750259   -0.594205
     25          6           0       -2.160970    0.132847   -0.870318
     26          9           0       -3.239339   -0.585750   -1.303519
     27          9           0       -1.847735    0.872409   -1.977655
     28          6           0       -2.640096    1.084515    0.267855
     29          9           0       -3.700814    1.827078   -0.183272
     30          8           0       -1.661151    1.986498    0.786220
     31          6           0       -1.688122    3.232879    0.138303
     32          9           0       -2.711504    3.962079    0.620242
     33          9           0       -0.538569    3.879258    0.412217
     34          9           0       -1.810606    3.104015   -1.190990
     35          6           0       -3.143150    0.209474    1.408097
     36          9           0       -4.142553   -0.618766    1.032554
     37          9           0       -2.159518   -0.561190    1.930470
     38          9           0       -3.624417    0.963385    2.428105
     39          1           0       -2.279817   -3.894431   -0.297171
     40          1           0       -3.221138   -2.371169   -0.301143
     41          1           0       -0.230901   -4.755469    0.186917
     42          1           0       -0.444951   -4.563899   -1.589818
     43          1           0        1.168409   -4.663118   -0.883805
 ---------------------------------------------------------------------

 SCF Done:  E(UCAM-B3LYP) =  -2759.59339607     A.U. after   21 cycles

 Alpha  occ. eigenvalues --  -24.89536 -24.87980 -24.87802 -24.87269 -24.86692
 Alpha  occ. eigenvalues --  -24.86393 -24.85971 -24.85914 -24.85810 -24.85669
 Alpha  occ. eigenvalues --  -24.85510 -24.84984 -24.84859 -24.84822 -24.84752
 Alpha  occ. eigenvalues --  -24.84659 -24.84641 -24.84617 -19.35602 -19.34536
 Alpha  occ. eigenvalues --  -19.30860 -19.30104 -14.61468 -14.61210 -14.58703
 Alpha  occ. eigenvalues --  -10.61514 -10.60980 -10.59146 -10.59081 -10.57824
 Alpha  occ. eigenvalues --  -10.57189 -10.53199 -10.52454 -10.52120 -10.51913
 Alpha  occ. eigenvalues --  -10.51640 -10.41572 -10.37474  -1.46110  -1.44796
 Alpha  occ. eigenvalues --   -1.44580  -1.44235  -1.44071  -1.41970  -1.39455
 Alpha  occ. eigenvalues --   -1.37275  -1.37240  -1.36657  -1.35666  -1.35398
 Alpha  occ. eigenvalues --   -1.35104  -1.35025  -1.34542  -1.34375  -1.34349
 Alpha  occ. eigenvalues --   -1.34032  -1.29089  -1.24422  -1.23311  -1.22186
 Alpha  occ. eigenvalues --   -1.20341  -1.14926  -1.14279  -1.00927  -0.98278
 Alpha  occ. eigenvalues --   -0.96220  -0.91756  -0.89760  -0.87574  -0.84736
 Alpha  occ. eigenvalues --   -0.83780  -0.83292  -0.82774  -0.81570  -0.79903
 Alpha  occ. eigenvalues --   -0.78341  -0.77041  -0.75967  -0.75128  -0.74492
 Alpha  occ. eigenvalues --   -0.74189  -0.73352  -0.72420  -0.71917  -0.71839
 Alpha  occ. eigenvalues --   -0.71456  -0.71119  -0.70852  -0.70632  -0.69764
 Alpha  occ. eigenvalues --   -0.69514  -0.69481  -0.68854  -0.68464  -0.68026
 Alpha  occ. eigenvalues --   -0.67262  -0.64482  -0.63171  -0.63006  -0.62716
 Alpha  occ. eigenvalues --   -0.61803  -0.61612  -0.61005  -0.60571  -0.59973
 Alpha  occ. eigenvalues --   -0.59643  -0.59254  -0.59133  -0.58828  -0.58735
 Alpha  occ. eigenvalues --   -0.58270  -0.58168  -0.57943  -0.57474  -0.57149
 Alpha  occ. eigenvalues --   -0.57067  -0.56602  -0.56376  -0.56139  -0.55862
 Alpha  occ. eigenvalues --   -0.55340  -0.55184  -0.55031  -0.54721  -0.54499
 Alpha  occ. eigenvalues --   -0.54207  -0.54125  -0.54053  -0.53783  -0.53459
 Alpha  occ. eigenvalues --   -0.53335  -0.53206  -0.53097  -0.52774  -0.52298
 Alpha  occ. eigenvalues --   -0.52094  -0.51765  -0.51564  -0.50970  -0.50864
 Alpha  occ. eigenvalues --   -0.50680  -0.48526  -0.47302  -0.46587  -0.45822
 Alpha  occ. eigenvalues --   -0.44922  -0.43570  -0.42806  -0.42597
 Alpha virt. eigenvalues --   -0.08013  -0.04887  -0.00002   0.01165   0.02735
 Alpha virt. eigenvalues --    0.03588   0.06833   0.07420   0.08192   0.09995
 Alpha virt. eigenvalues --    0.10298   0.10597   0.13605   0.14226   0.14523

  Beta  occ. eigenvalues --  -24.89526 -24.87974 -24.87801 -24.87268 -24.86681
  Beta  occ. eigenvalues --  -24.86393 -24.85971 -24.85911 -24.85804 -24.85669
  Beta  occ. eigenvalues --  -24.85510 -24.84984 -24.84859 -24.84822 -24.84752
  Beta  occ. eigenvalues --  -24.84659 -24.84641 -24.84617 -19.35602 -19.34536
  Beta  occ. eigenvalues --  -19.30686 -19.30085 -14.61045 -14.60905 -14.58667
  Beta  occ. eigenvalues --  -10.61514 -10.60980 -10.59146 -10.59088 -10.57824
  Beta  occ. eigenvalues --  -10.57191 -10.53195 -10.52476 -10.52199 -10.51913
  Beta  occ. eigenvalues --  -10.51670 -10.40588 -10.37498  -1.46104  -1.44791
  Beta  occ. eigenvalues --   -1.44579  -1.44222  -1.44071  -1.41961  -1.39453
  Beta  occ. eigenvalues --   -1.37267  -1.37238  -1.36638  -1.35664  -1.35395
  Beta  occ. eigenvalues --   -1.35103  -1.35020  -1.34541  -1.34375  -1.34348
  Beta  occ. eigenvalues --   -1.34030  -1.28848  -1.24187  -1.23280  -1.22174
  Beta  occ. eigenvalues --   -1.19932  -1.14755  -1.13639  -0.99349  -0.98094
  Beta  occ. eigenvalues --   -0.95963  -0.91661  -0.89668  -0.87024  -0.84652
  Beta  occ. eigenvalues --   -0.83693  -0.82872  -0.82688  -0.81429  -0.79846
  Beta  occ. eigenvalues --   -0.78244  -0.76992  -0.75906  -0.75099  -0.74432
  Beta  occ. eigenvalues --   -0.74165  -0.73313  -0.72384  -0.71905  -0.71833
  Beta  occ. eigenvalues --   -0.71392  -0.71083  -0.70824  -0.70384  -0.69758
  Beta  occ. eigenvalues --   -0.69488  -0.69383  -0.68763  -0.67855  -0.67750
  Beta  occ. eigenvalues --   -0.66755  -0.64133  -0.63078  -0.62705  -0.62292
  Beta  occ. eigenvalues --   -0.61497  -0.61369  -0.60801  -0.60300  -0.59856
  Beta  occ. eigenvalues --   -0.59542  -0.59234  -0.58988  -0.58814  -0.58674
  Beta  occ. eigenvalues --   -0.58250  -0.58032  -0.57812  -0.57435  -0.57103
  Beta  occ. eigenvalues --   -0.56965  -0.56588  -0.56311  -0.56096  -0.55763
  Beta  occ. eigenvalues --   -0.55129  -0.55057  -0.54888  -0.54492  -0.54474
  Beta  occ. eigenvalues --   -0.54143  -0.54059  -0.53987  -0.53690  -0.53388
  Beta  occ. eigenvalues --   -0.53223  -0.53141  -0.52826  -0.52603  -0.52295
  Beta  occ. eigenvalues --   -0.52080  -0.51761  -0.51557  -0.50912  -0.50844
  Beta  occ. eigenvalues --   -0.50672  -0.48485  -0.46851  -0.46538  -0.45039
  Beta  occ. eigenvalues --   -0.43770  -0.42589  -0.42550
  Beta virt. eigenvalues --   -0.22284  -0.04643  -0.04348   0.00621   0.01515
  Beta virt. eigenvalues --    0.02755   0.04005   0.07099   0.07647   0.08379
  Beta virt. eigenvalues --    0.10069   0.10566   0.10722   0.13653   0.14439

 Mulliken charges and spin densities:
               1          2
     1  C   -0.186490   0.691556
     2  C    0.711671  -0.002007
     3  N   -0.552508   0.243090
     4  C   -0.242009  -0.016845
     5  C    0.862641  -0.042337
     6  O   -0.426186   0.068603
     7  N   -0.628906   0.016292
     8  C    0.779724  -0.000502
     9  F   -0.250339   0.001323
    10  F   -0.261251   0.000587
    11  C    0.412690   0.000025
    12  F   -0.265911  -0.000026
    13  O   -0.488876   0.000031
    14  C    1.002596  -0.000011
    15  F   -0.243094   0.000010
    16  F   -0.237638   0.000002
    17  F   -0.245799   0.000045
    18  C    0.810274  -0.000078
    19  F   -0.242382  -0.000003
    20  F   -0.245639   0.000100
    21  F   -0.238968   0.000010
    22  C    0.889410  -0.010516
    23  O   -0.463654   0.008189
    24  N   -0.671003   0.071671
    25  C    0.751099  -0.004923
    26  F   -0.246099   0.001879
    27  F   -0.234253   0.002565
    28  C    0.446773   0.001454
    29  F   -0.257066   0.000118
    30  O   -0.519388   0.000271
    31  C    1.034422  -0.000025
    32  F   -0.244387   0.000001
    33  F   -0.240341  -0.000004
    34  F   -0.247705   0.000014
    35  C    0.803988  -0.000527
    36  F   -0.236672   0.000282
    37  F   -0.249081   0.001071
    38  F   -0.236744   0.000011
    39  H    0.233983  -0.028989
    40  H    0.228973  -0.028175
    41  H    0.204765   0.013961
    42  H    0.201152   0.010414
    43  H    0.228229   0.001392
 Sum of Mulliken charges =   1.00000   1.00000

 Dipole moment (field-independent basis, Debye):
    X=             -7.1925    Y=            -14.2682    Z=             -2.1523  Tot=             16.1228
 Quadrupole moment (field-independent basis, Debye-Ang):
   XX=           -187.9154   YY=           -150.3455   ZZ=           -196.7309
   XY=             18.0682   XZ=              2.8015   YZ=              7.4542

 Normal termination of Gaussian 09 at Sun Mar  3 17:38:32 2024.
