 Gaussian 09, Revision D.01,
 Gaussian 09:  ES64L-G09RevD.01 24-Apr-2013

 ----------------------------------------------------------------------
 #p CAM-B3LYP/6-31G(d,p) SCRF=(PCM,Solvent=Generic,Read) NoSymm out=wfn
 ----------------------------------------------------------------------

 -------------------
 Title A1462740670_0
 -------------------
 Symbolic Z-matrix:
 Charge =  0 Multiplicity = 1

                          Input orientation:
 ---------------------------------------------------------------------
 Center     Atomic      Atomic             Coordinates (Angstroms)
 Number     Number       Type             X           Y           Z
 ---------------------------------------------------------------------
      1          6           0       -1.676599    1.919707    2.020855
      2          6           0       -0.789551    1.142290    1.371978
      3          7           0        0.219988    0.503358    2.085034
      4          6           0        0.460677    0.806591    3.499012
      5          6           0        1.065970   -0.428142    1.496461
      6          8           0        2.032924   -0.897900    2.095883
      7          7           0        0.754297   -0.798093    0.213364
      8          6           0        1.599832   -1.799209   -0.419805
      9          9           0        0.857778   -2.466182   -1.352366
     10          9           0        1.893531   -2.774578    0.490515
     11          6           0        2.907537   -1.261875   -1.059113
     12          9           0        2.594852   -0.440676   -2.104391
     13          8           0        3.601886   -0.429226   -0.123610
     14          6           0        4.901880   -0.098317   -0.530205
     15          9           0        5.715628   -1.145056   -0.318598
     16          9           0        4.931039    0.257767   -1.823522
     17          9           0        5.330845    0.939007    0.213012
     18          6           0        3.644447   -2.505043   -1.577747
     19          9           0        4.077532   -3.294899   -0.569237
     20          9           0        2.884671   -3.269940   -2.391597
     21          9           0        4.741433   -2.166296   -2.299237
     22          6           0       -0.009159   -0.009208   -0.604578
     23          8           0        0.003057   -0.157410   -1.823874
     24          7           0       -0.810315    0.949088   -0.007115
     25          6           0       -1.674782    1.723578   -0.928558
     26          9           0       -1.871621    2.972249   -0.382080
     27          9           0       -1.004872    2.027710   -2.076511
     28          6           0       -3.081246    1.148555   -1.256546
     29          9           0       -3.770620    2.129529   -1.926831
     30          8           0       -3.790996    0.945438   -0.022865
     31          6           0       -5.051242    0.350288   -0.193375
     32          9           0       -5.768118    0.559212    0.926944
     33          9           0       -5.710820    0.875252   -1.235085
     34          9           0       -4.891258   -0.972691   -0.356651
     35          6           0       -2.945151   -0.072019   -2.168581
     36          9           0       -2.213738    0.166630   -3.273265
     37          9           0       -4.160006   -0.487808   -2.608763
     38          9           0       -2.408047   -1.121261   -1.504810
     39          1           0       -2.496313    2.450801    1.554054
     40          1           0       -1.658971    2.071394    3.094987
     41          1           0       -0.393763    0.462457    4.090727
     42          1           0        1.352387    0.309995    3.891097
     43          1           0        0.604996    1.884932    3.622835
 ---------------------------------------------------------------------

 SCF Done:  E(RCAM-B3LYP) =  -2759.85181442     A.U. after   13 cycles

 Alpha  occ. eigenvalues --  -24.84048 -24.83819 -24.83657 -24.83551 -24.83373
 Alpha  occ. eigenvalues --  -24.83298 -24.83111 -24.83100 -24.82986 -24.82880
 Alpha  occ. eigenvalues --  -24.82795 -24.82745 -24.82710 -24.82531 -24.82282
 Alpha  occ. eigenvalues --  -24.82238 -24.82178 -24.82053 -19.33501 -19.32638
 Alpha  occ. eigenvalues --  -19.22915 -19.22314 -14.52009 -14.51816 -14.49247
 Alpha  occ. eigenvalues --  -10.59947 -10.59291 -10.55500 -10.54912 -10.53629
 Alpha  occ. eigenvalues --  -10.52668 -10.49228 -10.48473 -10.45520 -10.44201
 Alpha  occ. eigenvalues --  -10.38284 -10.31398 -10.26402  -1.43541  -1.42942
 Alpha  occ. eigenvalues --   -1.41741  -1.41283  -1.38969  -1.38309  -1.35390
 Alpha  occ. eigenvalues --   -1.35114  -1.33846  -1.33528  -1.33243  -1.33016
 Alpha  occ. eigenvalues --   -1.32917  -1.32258  -1.32129  -1.31677  -1.31354
 Alpha  occ. eigenvalues --   -1.30810  -1.21277  -1.20861  -1.20179  -1.16433
 Alpha  occ. eigenvalues --   -1.11100  -1.07948  -1.04954  -0.93667  -0.93000
 Alpha  occ. eigenvalues --   -0.88081  -0.85531  -0.83345  -0.82326  -0.81897
 Alpha  occ. eigenvalues --   -0.80304  -0.78315  -0.76148  -0.75637  -0.73702
 Alpha  occ. eigenvalues --   -0.73248  -0.72602  -0.72379  -0.71893  -0.71447
 Alpha  occ. eigenvalues --   -0.70658  -0.70149  -0.69835  -0.69464  -0.68827
 Alpha  occ. eigenvalues --   -0.68335  -0.68093  -0.66940  -0.66589  -0.66166
 Alpha  occ. eigenvalues --   -0.65930  -0.65114  -0.64465  -0.63502  -0.60925
 Alpha  occ. eigenvalues --   -0.59880  -0.59432  -0.58325  -0.57788  -0.57282
 Alpha  occ. eigenvalues --   -0.57124  -0.56757  -0.56412  -0.56163  -0.55853
 Alpha  occ. eigenvalues --   -0.55707  -0.55528  -0.55250  -0.55187  -0.54999
 Alpha  occ. eigenvalues --   -0.54573  -0.54326  -0.53939  -0.53797  -0.53419
 Alpha  occ. eigenvalues --   -0.53261  -0.53204  -0.52895  -0.52489  -0.52272
 Alpha  occ. eigenvalues --   -0.52208  -0.52024  -0.51902  -0.51488  -0.51299
 Alpha  occ. eigenvalues --   -0.50648  -0.50516  -0.50144  -0.50080  -0.50006
 Alpha  occ. eigenvalues --   -0.49681  -0.49509  -0.49050  -0.48960  -0.48840
 Alpha  occ. eigenvalues --   -0.48455  -0.48238  -0.47601  -0.46318  -0.46258
 Alpha  occ. eigenvalues --   -0.45768  -0.45241  -0.44644  -0.44097  -0.38572
 Alpha  occ. eigenvalues --   -0.37343  -0.36666  -0.35780  -0.29182
 Alpha virt. eigenvalues --    0.01959   0.03200   0.05818   0.06621   0.06953
 Alpha virt. eigenvalues --    0.09294   0.12085   0.13307   0.14060   0.14664
 Alpha virt. eigenvalues --    0.16393   0.17471   0.17957   0.18364   0.19530

 Mulliken charges:
               1
     1  C   -0.350706
     2  C    0.615816
     3  N   -0.595587
     4  C   -0.196980
     5  C    0.812967
     6  O   -0.510200
     7  N   -0.644193
     8  C    0.759881
     9  F   -0.258133
    10  F   -0.255037
    11  C    0.437206
    12  F   -0.254635
    13  O   -0.504088
    14  C    0.993287
    15  F   -0.243518
    16  F   -0.243062
    17  F   -0.240885
    18  C    0.810472
    19  F   -0.245984
    20  F   -0.243599
    21  F   -0.260845
    22  C    0.829368
    23  O   -0.501995
    24  N   -0.676002
    25  C    0.728123
    26  F   -0.266915
    27  F   -0.237948
    28  C    0.437724
    29  F   -0.267877
    30  O   -0.517086
    31  C    0.995571
    32  F   -0.240026
    33  F   -0.238462
    34  F   -0.243553
    35  C    0.822775
    36  F   -0.231896
    37  F   -0.258559
    38  F   -0.245810
    39  H    0.133152
    40  H    0.120855
    41  H    0.147658
    42  H    0.181089
    43  H    0.147639
 Sum of Mulliken charges =   0.00000

 Dipole moment (field-independent basis, Debye):
    X=             -2.0612    Y=              2.3332    Z=              3.7517  Tot=              4.8752
 Quadrupole moment (field-independent basis, Debye-Ang):
   XX=           -206.1817   YY=           -204.3931   ZZ=           -198.4181
   XY=              4.1111   XZ=             -3.8668   YZ=              5.0524

 Normal termination of Gaussian 09 at Tue Mar  5 18:35:27 2024.
