 Gaussian 09, Revision D.01,
 Gaussian 09:  ES64L-G09RevD.01 24-Apr-2013

 ----------------------------------------------------------------------
 #p CAM-B3LYP/6-31G(d,p) opt SCRF=(PCM,Solvent=Generic,Read) NoSymm out
 =wfn
 ----------------------------------------------------------------------

 ------------
 Title S0_neu
 ------------
 Symbolic Z-matrix:
 Charge =  0 Multiplicity = 1

 SCF Done:  E(RCAM-B3LYP) =  -1976.96716617     A.U. after   12 cycles
 SCF Done:  E(RCAM-B3LYP) =  -1976.98298278     A.U. after   11 cycles
 SCF Done:  E(RCAM-B3LYP) =  -1976.99048361     A.U. after   10 cycles
 SCF Done:  E(RCAM-B3LYP) =  -1976.99193962     A.U. after   10 cycles
 SCF Done:  E(RCAM-B3LYP) =  -1976.99355201     A.U. after   10 cycles
 SCF Done:  E(RCAM-B3LYP) =  -1976.99176722     A.U. after   10 cycles
 SCF Done:  E(RCAM-B3LYP) =  -1976.99421404     A.U. after    8 cycles
 SCF Done:  E(RCAM-B3LYP) =  -1976.99471100     A.U. after    9 cycles
 SCF Done:  E(RCAM-B3LYP) =  -1976.99490191     A.U. after    9 cycles
 SCF Done:  E(RCAM-B3LYP) =  -1976.99495987     A.U. after    9 cycles
 SCF Done:  E(RCAM-B3LYP) =  -1976.99498884     A.U. after    8 cycles
 SCF Done:  E(RCAM-B3LYP) =  -1976.99499308     A.U. after    8 cycles
 SCF Done:  E(RCAM-B3LYP) =  -1976.99499418     A.U. after    7 cycles
 SCF Done:  E(RCAM-B3LYP) =  -1976.99499451     A.U. after    6 cycles
 Optimization completed.
    -- Stationary point found.

                          Input orientation:
 ---------------------------------------------------------------------
 Center     Atomic      Atomic             Coordinates (Angstroms)
 Number     Number       Type             X           Y           Z
 ---------------------------------------------------------------------
      1          9           0       -0.234209    0.060522    1.341397
      2          6           0       -0.492822   -0.121949    0.011784
      3          6           0       -1.160131    1.160624   -0.520133
      4          9           0       -0.258538    2.163147   -0.456446
      5          6           0       -2.400053    1.620278    0.274448
      6          9           0       -2.930534    2.676027   -0.334206
      7          9           0       -3.305883    0.640314    0.309864
      8          9           0       -2.070552    1.955024    1.516894
      9          9           0       -1.536686    0.996386   -1.798193
     10          6           0        0.832731   -0.488568   -0.734499
     11          8           0        0.807446   -1.872136   -0.943658
     12          6           0       -0.230517   -2.500858   -0.291358
     13          9           0        0.168368   -2.958191    0.903550
     14          9           0       -0.642783   -3.527760   -1.024074
     15          6           0       -1.316501   -1.426299   -0.107141
     16          9           0       -2.100133   -1.421603   -1.197652
     17          9           0       -2.055756   -1.647483    0.981221
     18          6           0        2.170255   -0.197728   -0.004437
     19          9           0        3.137024   -0.667200   -0.817213
     20          6           0        2.541321    1.263986    0.310432
     21          9           0        1.745636    1.773420    1.247470
     22          9           0        2.459148    2.009575   -0.789720
     23          9           0        3.795079    1.290187    0.757519
     24          9           0        2.188575   -0.894589    1.145235
     25          9           0        0.889515    0.114874   -1.942949
 ---------------------------------------------------------------------

 Alpha  occ. eigenvalues --  -24.84051 -24.83727 -24.83713 -24.83686 -24.83678
 Alpha  occ. eigenvalues --  -24.83578 -24.83568 -24.83534 -24.83436 -24.83398
 Alpha  occ. eigenvalues --  -24.83347 -24.83220 -24.83159 -24.83141 -24.82790
 Alpha  occ. eigenvalues --  -24.82772 -19.32262 -10.54946 -10.54524 -10.52725
 Alpha  occ. eigenvalues --  -10.49514 -10.48994 -10.48647 -10.48091 -10.43616
 Alpha  occ. eigenvalues --   -1.43575  -1.43062  -1.41372  -1.39447  -1.38964
 Alpha  occ. eigenvalues --   -1.38684  -1.36268  -1.35871  -1.34209  -1.33827
 Alpha  occ. eigenvalues --   -1.33783  -1.33616  -1.33296  -1.32909  -1.32537
 Alpha  occ. eigenvalues --   -1.32244  -1.22587  -0.95821  -0.91815  -0.89223
 Alpha  occ. eigenvalues --   -0.86534  -0.81631  -0.78438  -0.76721  -0.75776
 Alpha  occ. eigenvalues --   -0.72765  -0.72200  -0.71111  -0.70978  -0.70567
 Alpha  occ. eigenvalues --   -0.69957  -0.69689  -0.69464  -0.68519  -0.68215
 Alpha  occ. eigenvalues --   -0.67242  -0.66603  -0.66201  -0.65578  -0.64587
 Alpha  occ. eigenvalues --   -0.63279  -0.58715  -0.57837  -0.57453  -0.57153
 Alpha  occ. eigenvalues --   -0.56780  -0.56605  -0.56503  -0.56015  -0.55815
 Alpha  occ. eigenvalues --   -0.55392  -0.54959  -0.54657  -0.54356  -0.54159
 Alpha  occ. eigenvalues --   -0.53942  -0.53559  -0.53048  -0.52793  -0.52548
 Alpha  occ. eigenvalues --   -0.51982  -0.51703  -0.51590  -0.50951  -0.50888
 Alpha  occ. eigenvalues --   -0.50569  -0.50381  -0.50115  -0.49803  -0.48931
 Alpha  occ. eigenvalues --   -0.48024  -0.46342  -0.44395  -0.43149  -0.41679
 Alpha virt. eigenvalues --    0.03524   0.08105   0.09337   0.12747   0.13782
 Alpha virt. eigenvalues --    0.14811   0.16407   0.19028   0.20970   0.23782
 Alpha virt. eigenvalues --    0.24407   0.25186   0.25616   0.26092   0.26857

 Mulliken charges:
               1
     1  F   -0.288154
     2  C    0.117526
     3  C    0.524051
     4  F   -0.268290
     5  C    0.779804
     6  F   -0.235994
     7  F   -0.237933
     8  F   -0.230672
     9  F   -0.258037
    10  C    0.496884
    11  O   -0.492207
    12  C    0.757562
    13  F   -0.244587
    14  F   -0.235196
    15  C    0.534122
    16  F   -0.254923
    17  F   -0.251771
    18  C    0.515521
    19  F   -0.265489
    20  C    0.775004
    21  F   -0.237637
    22  F   -0.239240
    23  F   -0.239748
    24  F   -0.260948
    25  F   -0.259649
 Sum of Mulliken charges =   0.00000

 Dipole moment (field-independent basis, Debye):
    X=             -0.6327    Y=              0.2595    Z=              0.0926  Tot=              0.6901
 Quadrupole moment (field-independent basis, Debye-Ang):
   XX=           -130.0753   YY=           -130.1382   ZZ=           -131.0255
   XY=              0.5451   XZ=              0.2320   YZ=              0.1047

 Normal termination of Gaussian 09 at Mon Feb  3 22:34:59 2025.
