 Gaussian 09, Revision D.01,
 Gaussian 09:  ES64L-G09RevD.01 24-Apr-2013

 ----------------------------------------------------------------------
 #p CAM-B3LYP/6-31G(d,p) SCRF=(PCM,Solvent=Generic,Read) NoSymm out=wfn
 ----------------------------------------------------------------------

 -------------------
 Title A1635117081_0
 -------------------
 Symbolic Z-matrix:
 Charge =  0 Multiplicity = 1

                          Input orientation:
 ---------------------------------------------------------------------
 Center     Atomic      Atomic             Coordinates (Angstroms)
 Number     Number       Type             X           Y           Z
 ---------------------------------------------------------------------
      1          6           0       -0.240977    6.051319    0.375084
      2          6           0        0.219125    4.907096    1.264097
      3          6           0       -0.009659    3.552459    0.595896
      4          6           0        0.455204    2.402777    1.493919
      5          7           0        0.235537    1.106643    0.849880
      6          6           0        1.257627    0.594439    0.069811
      7          8           0        2.342947    1.153679   -0.058963
      8          7           0        0.986263   -0.591358   -0.561424
      9          6           0        1.942844   -1.076892   -1.543798
     10          9           0        1.338475   -2.079587   -2.254124
     11          9           0        2.108738   -0.095933   -2.470841
     12          6           0        3.315162   -1.616876   -1.039265
     13          9           0        4.049599   -2.048996   -2.113215
     14          8           0        4.131102   -0.722022   -0.285660
     15          6           0        4.977068    0.043634   -1.102782
     16          9           0        5.441249    1.089247   -0.392094
     17          9           0        4.344050    0.500779   -2.193660
     18          9           0        6.029615   -0.708449   -1.479185
     19          6           0        2.997132   -2.832489   -0.171435
     20          9           0        4.130979   -3.420020    0.286617
     21          9           0        2.261960   -2.506315    0.919075
     22          9           0        2.307143   -3.786169   -0.837569
     23          6           0       -0.384260   -0.947770   -0.737792
     24          7           0       -1.131459   -0.763838    0.467695
     25          6           0       -2.453989   -1.381051    0.617601
     26          9           0       -2.744255   -1.365442    1.957055
     27          9           0       -3.365942   -0.577678    0.015838
     28          6           0       -2.664875   -2.865609    0.176656
     29          9           0       -1.431808   -3.481796    0.175905
     30          8           0       -3.398940   -3.661469    1.121068
     31          6           0       -4.776705   -3.384307    1.150804
     32          9           0       -5.371046   -4.027767    0.132789
     33          9           0       -5.006601   -2.069164    1.046215
     34          9           0       -5.287469   -3.833220    2.309351
     35          6           0       -3.205871   -2.884543   -1.257624
     36          9           0       -4.421086   -2.312089   -1.376092
     37          9           0       -3.321312   -4.154278   -1.713968
     38          9           0       -2.382361   -2.234065   -2.113097
     39          6           0       -0.976910    0.466316    1.085584
     40          8           0       -1.842919    0.963395    1.801594
     41          1           0        0.306700    6.056356   -0.572739
     42          1           0       -0.068115    7.010848    0.872397
     43          1           0       -1.310104    5.970928    0.154069
     44          1           0        1.283696    5.034709    1.492273
     45          1           0       -0.324322    4.949709    2.215149
     46          1           0        0.528233    3.515840   -0.359606
     47          1           0       -1.074345    3.430979    0.360835
     48          1           0        1.519925    2.521098    1.727261
     49          1           0       -0.080774    2.435683    2.449712
     50          1           0       -0.817559   -0.330079   -1.533295
     51          1           0       -0.416710   -1.998664   -1.016005
 ---------------------------------------------------------------------

 SCF Done:  E(RCAM-B3LYP) =  -2839.68533736     A.U. after   13 cycles

 Alpha  occ. eigenvalues --  -24.85154 -24.84456 -24.84377 -24.83938 -24.83921
 Alpha  occ. eigenvalues --  -24.83680 -24.83606 -24.83556 -24.83496 -24.83344
 Alpha  occ. eigenvalues --  -24.83268 -24.82928 -24.82675 -24.82656 -24.82404
 Alpha  occ. eigenvalues --  -24.82220 -24.81357 -24.81322 -19.33534 -19.32046
 Alpha  occ. eigenvalues --  -19.22233 -19.22184 -14.49235 -14.49068 -14.48693
 Alpha  occ. eigenvalues --  -10.60001 -10.58822 -10.56208 -10.55093 -10.52197
 Alpha  occ. eigenvalues --  -10.52128 -10.49782 -10.48780 -10.43611 -10.43519
 Alpha  occ. eigenvalues --  -10.37034 -10.30360 -10.25798 -10.25391 -10.24401
 Alpha  occ. eigenvalues --   -1.43879  -1.42721  -1.42280  -1.41609  -1.38927
 Alpha  occ. eigenvalues --   -1.38236  -1.36418  -1.35729  -1.34261  -1.34169
 Alpha  occ. eigenvalues --   -1.33464  -1.33060  -1.32856  -1.32605  -1.32103
 Alpha  occ. eigenvalues --   -1.31990  -1.31256  -1.31167  -1.20920  -1.20093
 Alpha  occ. eigenvalues --   -1.19253  -1.15734  -1.10158  -1.04925  -1.04776
 Alpha  occ. eigenvalues --   -0.93608  -0.93058  -0.88814  -0.85178  -0.84107
 Alpha  occ. eigenvalues --   -0.83016  -0.82652  -0.80365  -0.79822  -0.77591
 Alpha  occ. eigenvalues --   -0.76560  -0.74840  -0.74024  -0.73490  -0.72156
 Alpha  occ. eigenvalues --   -0.72034  -0.71435  -0.70796  -0.70258  -0.70049
 Alpha  occ. eigenvalues --   -0.69502  -0.69296  -0.69136  -0.68894  -0.68266
 Alpha  occ. eigenvalues --   -0.67371  -0.67281  -0.66294  -0.66098  -0.65662
 Alpha  occ. eigenvalues --   -0.65313  -0.65117  -0.62596  -0.61793  -0.60139
 Alpha  occ. eigenvalues --   -0.59525  -0.58712  -0.58006  -0.57694  -0.57473
 Alpha  occ. eigenvalues --   -0.57164  -0.56684  -0.56382  -0.56122  -0.55913
 Alpha  occ. eigenvalues --   -0.55893  -0.55655  -0.55388  -0.54719  -0.54685
 Alpha  occ. eigenvalues --   -0.54621  -0.54474  -0.54275  -0.54060  -0.53586
 Alpha  occ. eigenvalues --   -0.53380  -0.53033  -0.52482  -0.52292  -0.51955
 Alpha  occ. eigenvalues --   -0.51870  -0.51822  -0.51404  -0.51283  -0.50993
 Alpha  occ. eigenvalues --   -0.50958  -0.50933  -0.50601  -0.50360  -0.49983
 Alpha  occ. eigenvalues --   -0.49836  -0.49569  -0.49320  -0.49129  -0.48809
 Alpha  occ. eigenvalues --   -0.48686  -0.48493  -0.48414  -0.47992  -0.47303
 Alpha  occ. eigenvalues --   -0.46987  -0.45355  -0.43777  -0.42768  -0.41999
 Alpha  occ. eigenvalues --   -0.41239  -0.40104  -0.39042  -0.37677  -0.37459
 Alpha  occ. eigenvalues --   -0.35552  -0.35084  -0.34452
 Alpha virt. eigenvalues --    0.01797   0.04169   0.06297   0.07360   0.09022
 Alpha virt. eigenvalues --    0.10164   0.13975   0.14071   0.15085   0.16308
 Alpha virt. eigenvalues --    0.16518   0.17372   0.17715   0.18294   0.19192

 Mulliken charges:
               1
     1  C   -0.322565
     2  C   -0.184222
     3  C   -0.175980
     4  C   -0.062997
     5  N   -0.601085
     6  C    0.840524
     7  O   -0.526694
     8  N   -0.588267
     9  C    0.752045
    10  F   -0.274900
    11  F   -0.257565
    12  C    0.428514
    13  F   -0.274527
    14  O   -0.512736
    15  C    1.022218
    16  F   -0.247035
    17  F   -0.248744
    18  F   -0.253048
    19  C    0.801047
    20  F   -0.252002
    21  F   -0.244263
    22  F   -0.245999
    23  C    0.094899
    24  N   -0.581896
    25  C    0.788232
    26  F   -0.282128
    27  F   -0.262081
    28  C    0.389262
    29  F   -0.269469
    30  O   -0.491614
    31  C    0.987101
    32  F   -0.243860
    33  F   -0.239304
    34  F   -0.233459
    35  C    0.809521
    36  F   -0.239499
    37  F   -0.248638
    38  F   -0.238214
    39  C    0.834195
    40  O   -0.517052
    41  H    0.107427
    42  H    0.104996
    43  H    0.107420
    44  H    0.104221
    45  H    0.104348
    46  H    0.110069
    47  H    0.110518
    48  H    0.147852
    49  H    0.147391
    50  H    0.162872
    51  H    0.165172
 Sum of Mulliken charges =   0.00000

 Dipole moment (field-independent basis, Debye):
    X=             -1.4137    Y=             -0.1378    Z=             -1.4251  Tot=              2.0121
 Quadrupole moment (field-independent basis, Debye-Ang):
   XX=           -230.2551   YY=           -211.2615   ZZ=           -218.1547
   XY=              2.8546   XZ=              7.4612   YZ=              2.4468

 Normal termination of Gaussian 09 at Sun Mar  3 17:33:37 2024.
