 Gaussian 09, Revision D.01,
 Gaussian 09:  ES64L-G09RevD.01 24-Apr-2013

 ----------------------------------------------------------------------
 #p CAM-B3LYP/6-31G(d,p) SCRF=(PCM,Solvent=Generic,Read) NoSymm out=wfn
 ----------------------------------------------------------------------

 --------------------
 Title A1635117081_p1
 --------------------
 Symbolic Z-matrix:
 Charge =  1 Multiplicity = 2

                          Input orientation:
 ---------------------------------------------------------------------
 Center     Atomic      Atomic             Coordinates (Angstroms)
 Number     Number       Type             X           Y           Z
 ---------------------------------------------------------------------
      1          6           0       -0.240977    6.051319    0.375084
      2          6           0        0.219125    4.907096    1.264097
      3          6           0       -0.009659    3.552459    0.595896
      4          6           0        0.455204    2.402777    1.493919
      5          7           0        0.235537    1.106643    0.849880
      6          6           0        1.257627    0.594439    0.069811
      7          8           0        2.342947    1.153679   -0.058963
      8          7           0        0.986263   -0.591358   -0.561424
      9          6           0        1.942844   -1.076892   -1.543798
     10          9           0        1.338475   -2.079587   -2.254124
     11          9           0        2.108738   -0.095933   -2.470841
     12          6           0        3.315162   -1.616876   -1.039265
     13          9           0        4.049599   -2.048996   -2.113215
     14          8           0        4.131102   -0.722022   -0.285660
     15          6           0        4.977068    0.043634   -1.102782
     16          9           0        5.441249    1.089247   -0.392094
     17          9           0        4.344050    0.500779   -2.193660
     18          9           0        6.029615   -0.708449   -1.479185
     19          6           0        2.997132   -2.832489   -0.171435
     20          9           0        4.130979   -3.420020    0.286617
     21          9           0        2.261960   -2.506315    0.919075
     22          9           0        2.307143   -3.786169   -0.837569
     23          6           0       -0.384260   -0.947770   -0.737792
     24          7           0       -1.131459   -0.763838    0.467695
     25          6           0       -2.453989   -1.381051    0.617601
     26          9           0       -2.744255   -1.365442    1.957055
     27          9           0       -3.365942   -0.577678    0.015838
     28          6           0       -2.664875   -2.865609    0.176656
     29          9           0       -1.431808   -3.481796    0.175905
     30          8           0       -3.398940   -3.661469    1.121068
     31          6           0       -4.776705   -3.384307    1.150804
     32          9           0       -5.371046   -4.027767    0.132789
     33          9           0       -5.006601   -2.069164    1.046215
     34          9           0       -5.287469   -3.833220    2.309351
     35          6           0       -3.205871   -2.884543   -1.257624
     36          9           0       -4.421086   -2.312089   -1.376092
     37          9           0       -3.321312   -4.154278   -1.713968
     38          9           0       -2.382361   -2.234065   -2.113097
     39          6           0       -0.976910    0.466316    1.085584
     40          8           0       -1.842919    0.963395    1.801594
     41          1           0        0.306700    6.056356   -0.572739
     42          1           0       -0.068115    7.010848    0.872397
     43          1           0       -1.310104    5.970928    0.154069
     44          1           0        1.283696    5.034709    1.492273
     45          1           0       -0.324322    4.949709    2.215149
     46          1           0        0.528233    3.515840   -0.359606
     47          1           0       -1.074345    3.430979    0.360835
     48          1           0        1.519925    2.521098    1.727261
     49          1           0       -0.080774    2.435683    2.449712
     50          1           0       -0.817559   -0.330079   -1.533295
     51          1           0       -0.416710   -1.998664   -1.016005
 ---------------------------------------------------------------------

 SCF Done:  E(UCAM-B3LYP) =  -2839.37345265     A.U. after   37 cycles

 Alpha  occ. eigenvalues --  -24.87744 -24.87559 -24.87322 -24.86706 -24.86553
 Alpha  occ. eigenvalues --  -24.86346 -24.86174 -24.86151 -24.85771 -24.85715
 Alpha  occ. eigenvalues --  -24.85697 -24.85677 -24.85660 -24.85556 -24.85435
 Alpha  occ. eigenvalues --  -24.85091 -24.84941 -24.84379 -19.36002 -19.35212
 Alpha  occ. eigenvalues --  -19.32877 -19.32425 -14.66079 -14.56840 -14.56779
 Alpha  occ. eigenvalues --  -10.61986 -10.61373 -10.58664 -10.57775 -10.56837
 Alpha  occ. eigenvalues --  -10.56777 -10.52906 -10.52830 -10.52648 -10.52144
 Alpha  occ. eigenvalues --  -10.42883 -10.40123 -10.33972 -10.30474 -10.28094
 Alpha  occ. eigenvalues --   -1.45988  -1.44930  -1.44878  -1.44164  -1.42851
 Alpha  occ. eigenvalues --   -1.42407  -1.39391  -1.38575  -1.36531  -1.36232
 Alpha  occ. eigenvalues --   -1.35911  -1.35584  -1.35277  -1.35207  -1.35028
 Alpha  occ. eigenvalues --   -1.34955  -1.34381  -1.34262  -1.29997  -1.25325
 Alpha  occ. eigenvalues --   -1.23355  -1.23015  -1.18695  -1.16969  -1.12200
 Alpha  occ. eigenvalues --   -0.97836  -0.96789  -0.96248  -0.91098  -0.90136
 Alpha  occ. eigenvalues --   -0.90020  -0.85701  -0.85146  -0.84349  -0.82981
 Alpha  occ. eigenvalues --   -0.81131  -0.79122  -0.78500  -0.77133  -0.76157
 Alpha  occ. eigenvalues --   -0.75958  -0.75084  -0.74829  -0.73675  -0.73235
 Alpha  occ. eigenvalues --   -0.72759  -0.72584  -0.72148  -0.71723  -0.71435
 Alpha  occ. eigenvalues --   -0.71353  -0.70712  -0.70671  -0.69881  -0.69767
 Alpha  occ. eigenvalues --   -0.68931  -0.68439  -0.68169  -0.67159  -0.67057
 Alpha  occ. eigenvalues --   -0.65817  -0.63310  -0.62365  -0.62069  -0.61845
 Alpha  occ. eigenvalues --   -0.61354  -0.61093  -0.60441  -0.60339  -0.60141
 Alpha  occ. eigenvalues --   -0.59573  -0.59360  -0.58727  -0.58659  -0.58431
 Alpha  occ. eigenvalues --   -0.58213  -0.58049  -0.58026  -0.57632  -0.57145
 Alpha  occ. eigenvalues --   -0.57044  -0.56885  -0.56411  -0.55851  -0.55738
 Alpha  occ. eigenvalues --   -0.55360  -0.55108  -0.54927  -0.54730  -0.54443
 Alpha  occ. eigenvalues --   -0.54284  -0.54015  -0.53768  -0.53679  -0.53555
 Alpha  occ. eigenvalues --   -0.53301  -0.53190  -0.52850  -0.52601  -0.52115
 Alpha  occ. eigenvalues --   -0.51885  -0.51734  -0.51534  -0.51440  -0.51279
 Alpha  occ. eigenvalues --   -0.50928  -0.50371  -0.49324  -0.48203  -0.47388
 Alpha  occ. eigenvalues --   -0.46764  -0.46082  -0.45457  -0.44804  -0.44580
 Alpha  occ. eigenvalues --   -0.44161  -0.43436  -0.42521
 Alpha virt. eigenvalues --   -0.06857  -0.00953   0.00463   0.02548   0.04854
 Alpha virt. eigenvalues --    0.05538   0.08483   0.09326   0.10244   0.10489
 Alpha virt. eigenvalues --    0.11766   0.12576   0.12783   0.13888   0.14048

  Beta  occ. eigenvalues --  -24.87744 -24.87559 -24.87322 -24.86698 -24.86553
  Beta  occ. eigenvalues --  -24.86344 -24.86170 -24.86151 -24.85771 -24.85703
  Beta  occ. eigenvalues --  -24.85682 -24.85677 -24.85660 -24.85555 -24.85435
  Beta  occ. eigenvalues --  -24.85091 -24.84941 -24.84379 -19.36002 -19.35207
  Beta  occ. eigenvalues --  -19.32454 -19.32078 -14.64781 -14.56769 -14.56696
  Beta  occ. eigenvalues --  -10.61986 -10.61373 -10.58664 -10.57775 -10.56843
  Beta  occ. eigenvalues --  -10.56783 -10.53006 -10.52906 -10.52806 -10.52141
  Beta  occ. eigenvalues --  -10.42892 -10.40059 -10.33768 -10.30436 -10.28059
  Beta  occ. eigenvalues --   -1.45987  -1.44930  -1.44876  -1.44162  -1.42840
  Beta  occ. eigenvalues --   -1.42385  -1.39391  -1.38571  -1.36531  -1.36231
  Beta  occ. eigenvalues --   -1.35898  -1.35565  -1.35274  -1.35204  -1.35022
  Beta  occ. eigenvalues --   -1.34949  -1.34379  -1.34261  -1.28883  -1.24729
  Beta  occ. eigenvalues --   -1.23352  -1.22983  -1.17967  -1.15221  -1.11931
  Beta  occ. eigenvalues --   -0.97578  -0.96620  -0.95956  -0.90937  -0.89976
  Beta  occ. eigenvalues --   -0.89680  -0.85451  -0.85007  -0.84153  -0.82978
  Beta  occ. eigenvalues --   -0.80904  -0.78894  -0.78321  -0.77107  -0.76145
  Beta  occ. eigenvalues --   -0.75716  -0.75027  -0.74726  -0.73651  -0.73129
  Beta  occ. eigenvalues --   -0.72599  -0.72219  -0.71908  -0.71563  -0.71429
  Beta  occ. eigenvalues --   -0.71240  -0.70662  -0.70637  -0.69804  -0.69496
  Beta  occ. eigenvalues --   -0.68892  -0.68332  -0.67353  -0.67086  -0.66466
  Beta  occ. eigenvalues --   -0.64952  -0.62389  -0.62046  -0.61765  -0.61524
  Beta  occ. eigenvalues --   -0.61157  -0.60714  -0.60321  -0.60158  -0.59956
  Beta  occ. eigenvalues --   -0.59381  -0.59098  -0.58664  -0.58572  -0.58359
  Beta  occ. eigenvalues --   -0.58173  -0.58001  -0.57951  -0.57586  -0.57121
  Beta  occ. eigenvalues --   -0.56961  -0.56785  -0.56308  -0.55597  -0.55342
  Beta  occ. eigenvalues --   -0.55124  -0.54746  -0.54642  -0.54539  -0.54306
  Beta  occ. eigenvalues --   -0.54142  -0.53905  -0.53713  -0.53643  -0.53389
  Beta  occ. eigenvalues --   -0.53295  -0.53178  -0.52823  -0.52594  -0.52086
  Beta  occ. eigenvalues --   -0.51864  -0.51532  -0.51400  -0.51265  -0.51192
  Beta  occ. eigenvalues --   -0.50832  -0.50151  -0.48061  -0.47153  -0.46609
  Beta  occ. eigenvalues --   -0.45912  -0.45224  -0.44285  -0.44066  -0.43620
  Beta  occ. eigenvalues --   -0.43338  -0.41359
  Beta virt. eigenvalues --   -0.27867  -0.06035   0.00503   0.00897   0.02561
  Beta virt. eigenvalues --    0.04962   0.05615   0.08776   0.09403   0.10396
  Beta virt. eigenvalues --    0.10681   0.11887   0.12693   0.12997   0.14041

 Mulliken charges and spin densities:
               1          2
     1  C   -0.330700   0.015969
     2  C   -0.194341   0.021315
     3  C   -0.205087   0.104263
     4  C   -0.108565   0.025744
     5  N   -0.458297   0.591310
     6  C    0.880269  -0.092662
     7  O   -0.423410   0.140377
     8  N   -0.572876   0.041455
     9  C    0.757703  -0.003162
    10  F   -0.259232   0.000016
    11  F   -0.244012   0.003019
    12  C    0.430388   0.001396
    13  F   -0.261746   0.000512
    14  O   -0.516545   0.001108
    15  C    1.025290  -0.000195
    16  F   -0.243215   0.000009
    17  F   -0.247503   0.000047
    18  F   -0.245699   0.000068
    19  C    0.807201  -0.000213
    20  F   -0.244062   0.000052
    21  F   -0.246785   0.000717
    22  F   -0.240070   0.000001
    23  C    0.077577  -0.001931
    24  N   -0.568026   0.036860
    25  C    0.797503  -0.003165
    26  F   -0.269930   0.003345
    27  F   -0.247671   0.002171
    28  C    0.390981   0.000138
    29  F   -0.265204  -0.000022
    30  O   -0.483764  -0.000045
    31  C    0.990977  -0.000002
    32  F   -0.239446   0.000000
    33  F   -0.240206   0.000029
    34  F   -0.228947   0.000000
    35  C    0.815219   0.000004
    36  F   -0.234937   0.000015
    37  F   -0.241104   0.000044
    38  F   -0.239015  -0.000014
    39  C    0.875171  -0.102981
    40  O   -0.401545   0.169783
    41  H    0.126076  -0.000624
    42  H    0.138750   0.009677
    43  H    0.125920  -0.000636
    44  H    0.136036  -0.000836
    45  H    0.136258  -0.000892
    46  H    0.161909  -0.003015
    47  H    0.161814  -0.002946
    48  H    0.228073   0.016674
    49  H    0.227822   0.016642
    50  H    0.210390   0.009383
    51  H    0.200613   0.001197
 Sum of Mulliken charges =   1.00000   1.00000

 Dipole moment (field-independent basis, Debye):
    X=             -0.8642    Y=              5.8171    Z=              1.4539  Tot=              6.0580
 Quadrupole moment (field-independent basis, Debye-Ang):
   XX=           -211.5918   YY=           -175.6973   ZZ=           -206.2468
   XY=              5.6097   XZ=              4.1987   YZ=             10.7249

 Normal termination of Gaussian 09 at Sun Mar  3 17:36:02 2024.
