 Gaussian 09, Revision D.01,
 Gaussian 09:  ES64L-G09RevD.01 24-Apr-2013

 ----------------------------------------------------------------------
 #p CAM-B3LYP/6-31G(d,p) SCRF=(PCM,Solvent=Generic,Read) NoSymm out=wfn
 ----------------------------------------------------------------------

 -------------
 Title OA1_neu
 -------------
 Symbolic Z-matrix:
 Charge =  0 Multiplicity = 1

                          Input orientation:
 ---------------------------------------------------------------------
 Center     Atomic      Atomic             Coordinates (Angstroms)
 Number     Number       Type             X           Y           Z
 ---------------------------------------------------------------------
      1          9           0       -6.841474    2.070955    1.876523
      2          6           0       -6.172812    1.567368    0.821287
      3          9           0       -6.796009    1.999771   -0.298334
      4          6           0       -6.052291    0.057943    0.852951
      5          9           0       -5.794403   -0.388922    2.100550
      6          9           0       -7.151640   -0.587964    0.421814
      7          6           0       -4.869208   -0.117438   -0.042901
      8          9           0       -5.275441    0.183950   -1.325079
      9          6           0       -4.290116   -1.498171   -0.036053
     10          9           0       -3.922419   -1.827763    1.228735
     11          6           0       -5.279212   -2.506522   -0.614965
     12          8           0       -6.020558   -3.135674    0.323878
     13          8           0       -5.466014   -2.753635   -1.796416
     14          9           0       -3.138239   -1.471393   -0.767454
     15          6           0       -3.967260    1.027124    0.422508
     16          9           0       -3.276275    1.495675   -0.659835
     17          6           0       -2.963265    0.828733    1.582877
     18          9           0       -2.605846    2.079290    2.038331
     19          6           0       -1.672478    0.102028    1.156374
     20          7           0       -0.775511    0.884744    0.442755
     21          6           0        0.529846    0.369817    0.075277
     22          6           0        1.176363    1.234779   -1.001998
     23          6           0        2.505151    0.675033   -1.514830
     24          6           0        3.605867    0.656417   -0.451872
     25          6           0        4.939758    0.192176   -1.043552
     26          6           0        6.038896    0.166905    0.021034
     27          6           0        7.417516   -0.189290   -0.539217
     28          6           0        7.506143   -1.608916   -1.077579
     29          8           0       -1.445618   -1.077433    1.414979
     30          9           0       -3.584079    0.243087    2.641114
     31          8           0       -4.861204    2.118794    0.787974
     32          1           0       -6.601516   -3.751338   -0.174344
     33          1           0       -0.875918    1.892759    0.528742
     34          1           0        1.134081    0.353289    0.988078
     35          1           0        0.416982   -0.662528   -0.274284
     36          1           0        1.324386    2.253334   -0.621874
     37          1           0        0.486972    1.322140   -1.851637
     38          1           0        2.350583   -0.337923   -1.906052
     39          1           0        2.833194    1.293014   -2.359887
     40          1           0        3.325506   -0.014579    0.367779
     41          1           0        3.722397    1.660348   -0.026232
     42          1           0        5.233576    0.864211   -1.858833
     43          1           0        4.811415   -0.806891   -1.474959
     44          1           0        6.105676    1.156105    0.490798
     45          1           0        5.770168   -0.541602    0.814057
     46          1           0        7.693717    0.518489   -1.329409
     47          1           0        8.157621   -0.074284    0.261729
     48          1           0        7.203950   -2.337017   -0.318249
     49          1           0        8.536026   -1.834783   -1.372362
     50          1           0        6.873015   -1.744212   -1.959253
 ---------------------------------------------------------------------

 SCF Done:  E(RCAM-B3LYP) =  -1974.52809790     A.U. after   13 cycles

 Alpha  occ. eigenvalues --  -24.83704 -24.83314 -24.82936 -24.82630 -24.82305
 Alpha  occ. eigenvalues --  -24.82232 -24.82095 -24.81980 -24.81522 -24.81430
 Alpha  occ. eigenvalues --  -19.31335 -19.30170 -19.25474 -19.21554 -14.44862
 Alpha  occ. eigenvalues --  -10.52351 -10.48997 -10.48944 -10.47582 -10.47182
 Alpha  occ. eigenvalues --  -10.44406 -10.42754 -10.39534 -10.29845 -10.26336
 Alpha  occ. eigenvalues --  -10.25611 -10.25077 -10.24760 -10.24684 -10.24600
 Alpha  occ. eigenvalues --  -10.24066  -1.40533  -1.38233  -1.37850  -1.36925
 Alpha  occ. eigenvalues --   -1.35662  -1.33719  -1.32841  -1.31597  -1.31236
 Alpha  occ. eigenvalues --   -1.30156  -1.22127  -1.19393  -1.13632  -1.12312
 Alpha  occ. eigenvalues --   -1.01591  -0.97563  -0.90460  -0.89698  -0.88583
 Alpha  occ. eigenvalues --   -0.87222  -0.83933  -0.82010  -0.78676  -0.77466
 Alpha  occ. eigenvalues --   -0.76111  -0.73954  -0.73164  -0.71021  -0.70315
 Alpha  occ. eigenvalues --   -0.69926  -0.69005  -0.68437  -0.67863  -0.66521
 Alpha  occ. eigenvalues --   -0.66145  -0.65880  -0.65473  -0.64530  -0.63996
 Alpha  occ. eigenvalues --   -0.63776  -0.63309  -0.62689  -0.61854  -0.58478
 Alpha  occ. eigenvalues --   -0.57607  -0.56720  -0.56268  -0.55857  -0.55522
 Alpha  occ. eigenvalues --   -0.55406  -0.54473  -0.54221  -0.53798  -0.53531
 Alpha  occ. eigenvalues --   -0.53442  -0.53073  -0.52647  -0.52560  -0.52288
 Alpha  occ. eigenvalues --   -0.52083  -0.51757  -0.51355  -0.50795  -0.50578
 Alpha  occ. eigenvalues --   -0.50143  -0.49848  -0.49589  -0.49366  -0.48702
 Alpha  occ. eigenvalues --   -0.48554  -0.48193  -0.47300  -0.46236  -0.45714
 Alpha  occ. eigenvalues --   -0.45539  -0.44876  -0.44554  -0.42942  -0.42648
 Alpha  occ. eigenvalues --   -0.42248  -0.41584  -0.41125  -0.40747  -0.39638
 Alpha  occ. eigenvalues --   -0.38901  -0.38242  -0.37737  -0.37663  -0.35841
 Alpha  occ. eigenvalues --   -0.34366  -0.32348
 Alpha virt. eigenvalues --   -0.00161   0.02222   0.04387   0.09135   0.10481
 Alpha virt. eigenvalues --    0.12185   0.12760   0.13518   0.13727   0.14546
 Alpha virt. eigenvalues --    0.14919   0.16064   0.16696   0.17613   0.18052

 Mulliken charges:
               1
     1  F   -0.247560
     2  C    0.757746
     3  F   -0.250184
     4  C    0.546417
     5  F   -0.245909
     6  F   -0.257234
     7  C    0.155155
     8  F   -0.288080
     9  C    0.615108
    10  F   -0.254581
    11  C    0.522188
    12  O   -0.469204
    13  O   -0.439190
    14  F   -0.270405
    15  C    0.501102
    16  F   -0.273063
    17  C    0.550650
    18  F   -0.284216
    19  C    0.533608
    20  N   -0.552050
    21  C   -0.016058
    22  C   -0.214809
    23  C   -0.185379
    24  C   -0.179976
    25  C   -0.175301
    26  C   -0.175017
    27  C   -0.178770
    28  C   -0.317570
    29  O   -0.502631
    30  F   -0.263786
    31  O   -0.507213
    32  H    0.362149
    33  H    0.282595
    34  H    0.124630
    35  H    0.140746
    36  H    0.097980
    37  H    0.112058
    38  H    0.100233
    39  H    0.098806
    40  H    0.099003
    41  H    0.091531
    42  H    0.090638
    43  H    0.096815
    44  H    0.087654
    45  H    0.090421
    46  H    0.091702
    47  H    0.090640
    48  H    0.102379
    49  H    0.100869
    50  H    0.105362
 Sum of Mulliken charges =   0.00000

 Dipole moment (field-independent basis, Debye):
    X=              1.6339    Y=              0.4301    Z=             -0.6222  Tot=              1.8005
 Quadrupole moment (field-independent basis, Debye-Ang):
   XX=           -165.3244   YY=           -169.1818   ZZ=           -184.8105
   XY=             15.2335   XZ=             -2.4944   YZ=              0.1735

 Normal termination of Gaussian 09 at Mon Feb  3 21:51:27 2025.
