 Gaussian 09, Revision D.01,
 Gaussian 09:  ES64L-G09RevD.01 24-Apr-2013

 ----------------------------------------------------------------------
 #p CAM-B3LYP/6-31G(d,p) SCRF=(PCM,Solvent=Generic,Read) NoSymm out=wfn
 ----------------------------------------------------------------------

 ------------------
 Title A201888830_0
 ------------------
 Symbolic Z-matrix:
 Charge =  0 Multiplicity = 1

                          Input orientation:
 ---------------------------------------------------------------------
 Center     Atomic      Atomic             Coordinates (Angstroms)
 Number     Number       Type             X           Y           Z
 ---------------------------------------------------------------------
      1          6           0       -0.300917    5.037231    0.269622
      2          6           0       -0.518143    4.084900   -0.429385
      3          6           0       -0.783981    2.915448   -1.283210
      4          7           0       -0.224243    1.716277   -0.671274
      5          6           0       -1.005235    1.004179    0.213360
      6          8           0       -2.210384    1.212768    0.322829
      7          7           0       -0.375898    0.000349    0.894339
      8          6           0       -1.141808   -0.746154    1.890600
      9          9           0       -2.116312   -1.454482    1.274430
     10          9           0       -0.304010   -1.683097    2.433408
     11          6           0       -1.678291    0.080869    3.100405
     12          9           0       -0.569245    0.700973    3.652570
     13          8           0       -2.541286    1.187447    2.835647
     14          6           0       -3.890209    0.843778    2.620151
     15          9           0       -4.525381    1.885221    2.054661
     16          9           0       -3.995851   -0.228118    1.824909
     17          9           0       -4.473724    0.578760    3.800875
     18          6           0       -2.193998   -0.922956    4.146124
     19          9           0       -3.212754   -1.676004    3.679980
     20          9           0       -2.652037   -0.272135    5.245371
     21          9           0       -1.237027   -1.770169    4.583680
     22          6           0        0.612407   -0.673385    0.218616
     23          8           0        0.710046   -1.896917    0.220208
     24          7           0        1.466575    0.121307   -0.510908
     25          6           0        2.657660   -0.491323   -1.083637
     26          9           0        3.636260    0.456593   -1.149220
     27          9           0        3.152879   -1.392463   -0.186227
     28          6           0        2.469340   -1.167280   -2.467859
     29          9           0        2.174524   -0.211171   -3.397434
     30          8           0        1.321046   -2.021059   -2.437149
     31          6           0        1.221553   -2.859300   -3.557720
     32          9           0        2.090336   -3.874578   -3.434371
     33          9           0        1.458203   -2.179338   -4.689998
     34          9           0       -0.027048   -3.358565   -3.606684
     35          6           0        3.825675   -1.809516   -2.792793
     36          9           0        3.849127   -2.308942   -4.052471
     37          9           0        4.852812   -0.935631   -2.716858
     38          9           0        4.108411   -2.838997   -1.963719
     39          6           0        1.025255    1.292453   -1.073173
     40          8           0        1.672445    1.895774   -1.925460
     41          1           0       -0.108977    5.885548    0.886411
     42          1           0       -0.353515    3.074602   -2.277819
     43          1           0       -1.864275    2.797104   -1.422127
 ---------------------------------------------------------------------

 SCF Done:  E(RCAM-B3LYP) =  -2871.88839997     A.U. after   13 cycles

 Alpha  occ. eigenvalues --  -24.83856 -24.83740 -24.83619 -24.83459 -24.83454
 Alpha  occ. eigenvalues --  -24.83391 -24.83358 -24.83267 -24.83212 -24.83179
 Alpha  occ. eigenvalues --  -24.83127 -24.83096 -24.83073 -24.83040 -24.83028
 Alpha  occ. eigenvalues --  -24.83014 -24.82845 -24.82644 -19.33303 -19.32743
 Alpha  occ. eigenvalues --  -19.25552 -19.25201 -19.24507 -14.53256 -14.53100
 Alpha  occ. eigenvalues --  -14.51730 -10.59808 -10.59333 -10.55534 -10.55407
 Alpha  occ. eigenvalues --  -10.53733 -10.53606 -10.49490 -10.49261 -10.47297
 Alpha  occ. eigenvalues --  -10.46658 -10.46426 -10.35289 -10.28086 -10.27374
 Alpha  occ. eigenvalues --   -1.43454  -1.43084  -1.41875  -1.41699  -1.39410
 Alpha  occ. eigenvalues --   -1.39341  -1.35886  -1.35330  -1.33763  -1.33622
 Alpha  occ. eigenvalues --   -1.33512  -1.33127  -1.32910  -1.32613  -1.32330
 Alpha  occ. eigenvalues --   -1.32255  -1.31844  -1.31759  -1.24259  -1.20897
 Alpha  occ. eigenvalues --   -1.20450  -1.18843  -1.18568  -1.10883  -1.08966
 Alpha  occ. eigenvalues --   -1.07937  -0.93994  -0.93031  -0.89694  -0.86060
 Alpha  occ. eigenvalues --   -0.84634  -0.82505  -0.82278  -0.82172  -0.79628
 Alpha  occ. eigenvalues --   -0.78463  -0.76729  -0.75400  -0.75169  -0.73957
 Alpha  occ. eigenvalues --   -0.73222  -0.72604  -0.71404  -0.70985  -0.70697
 Alpha  occ. eigenvalues --   -0.70100  -0.69616  -0.69242  -0.68644  -0.68444
 Alpha  occ. eigenvalues --   -0.68031  -0.67400  -0.66774  -0.66491  -0.65711
 Alpha  occ. eigenvalues --   -0.64869  -0.64571  -0.63662  -0.61867  -0.60446
 Alpha  occ. eigenvalues --   -0.60041  -0.59434  -0.57883  -0.57788  -0.57383
 Alpha  occ. eigenvalues --   -0.57311  -0.57029  -0.56859  -0.56793  -0.56346
 Alpha  occ. eigenvalues --   -0.56173  -0.55849  -0.55793  -0.55563  -0.55307
 Alpha  occ. eigenvalues --   -0.55101  -0.54847  -0.54638  -0.54212  -0.54064
 Alpha  occ. eigenvalues --   -0.53718  -0.53592  -0.53162  -0.53020  -0.52543
 Alpha  occ. eigenvalues --   -0.52493  -0.52286  -0.51773  -0.51296  -0.51214
 Alpha  occ. eigenvalues --   -0.50980  -0.50843  -0.50639  -0.50587  -0.50337
 Alpha  occ. eigenvalues --   -0.50147  -0.49895  -0.49844  -0.49786  -0.49089
 Alpha  occ. eigenvalues --   -0.48991  -0.48776  -0.48732  -0.47998  -0.46033
 Alpha  occ. eigenvalues --   -0.44966  -0.43485  -0.41710  -0.40747  -0.39616
 Alpha  occ. eigenvalues --   -0.38573  -0.38154  -0.36885  -0.35401  -0.34701
 Alpha virt. eigenvalues --   -0.01295   0.00466   0.05133   0.05500   0.06870
 Alpha virt. eigenvalues --    0.07892   0.08303   0.09333   0.10592   0.13957
 Alpha virt. eigenvalues --    0.15207   0.15308   0.17163   0.17239   0.17762

 Mulliken charges:
               1
     1  C   -0.405375
     2  C    0.276970
     3  C   -0.181742
     4  N   -0.575928
     5  C    0.823005
     6  O   -0.482206
     7  N   -0.624549
     8  C    0.781240
     9  F   -0.239467
    10  F   -0.264516
    11  C    0.425975
    12  F   -0.280712
    13  O   -0.497410
    14  C    1.014639
    15  F   -0.243958
    16  F   -0.245346
    17  F   -0.247418
    18  C    0.803617
    19  F   -0.246532
    20  F   -0.257971
    21  F   -0.242076
    22  C    0.798261
    23  O   -0.442726
    24  N   -0.637949
    25  C    0.763185
    26  F   -0.252773
    27  F   -0.254637
    28  C    0.434644
    29  F   -0.255803
    30  O   -0.504620
    31  C    0.994470
    32  F   -0.241342
    33  F   -0.242764
    34  F   -0.238335
    35  C    0.813429
    36  F   -0.258724
    37  F   -0.242707
    38  F   -0.244593
    39  C    0.827892
    40  O   -0.482918
    41  H    0.186555
    42  H    0.195536
    43  H    0.195677
 Sum of Mulliken charges =   0.00000

 Dipole moment (field-independent basis, Debye):
    X=             -0.6979    Y=              2.3777    Z=             -0.5459  Tot=              2.5375
 Quadrupole moment (field-independent basis, Debye-Ang):
   XX=           -219.6711   YY=           -208.2298   ZZ=           -212.8617
   XY=             -0.8514   XZ=              8.1816   YZ=              4.1805

 Normal termination of Gaussian 09 at Tue Mar  5 17:56:34 2024.
