 Gaussian 09, Revision D.01,
 Gaussian 09:  ES64L-G09RevD.01 24-Apr-2013

 ----------------------------------------------------------------------
 #p CAM-B3LYP/6-31G(d,p) SCRF=(PCM,Solvent=Generic,Read) NoSymm out=wfn
 ----------------------------------------------------------------------

 -------------------
 Title A201888830_p1
 -------------------
 Symbolic Z-matrix:
 Charge =  1 Multiplicity = 2

                          Input orientation:
 ---------------------------------------------------------------------
 Center     Atomic      Atomic             Coordinates (Angstroms)
 Number     Number       Type             X           Y           Z
 ---------------------------------------------------------------------
      1          6           0        0.882954    4.295819   -0.635896
      2          6           0        0.483456    3.375456   -1.296195
      3          6           0       -0.004844    2.242775   -2.099972
      4          7           0       -0.054924    1.029262   -1.293394
      5          6           0        1.095680    0.279499   -1.174574
      6          8           0        2.108428    0.534682   -1.820329
      7          7           0        1.052322   -0.738433   -0.256079
      8          6           0        2.298883   -1.422554    0.050160
      9          9           0        2.815297   -1.858488   -1.143221
     10          9           0        2.039216   -2.598740    0.695170
     11          6           0        3.409399   -0.654479    0.813174
     12          9           0        3.709397    0.522522    0.191775
     13          8           0        4.611458   -1.441158    0.904848
     14          6           0        5.575230   -1.039505   -0.033999
     15          9           0        5.049850   -0.947139   -1.264819
     16          9           0        6.554828   -1.964334   -0.053526
     17          9           0        6.107872    0.138494    0.335314
     18          6           0        2.929396   -0.320872    2.216006
     19          9           0        2.595504   -1.410304    2.934916
     20          9           0        1.865782    0.516995    2.186807
     21          9           0        3.902349    0.323097    2.911888
     22          6           0       -0.024047   -0.897665    0.582000
     23          8           0        0.108586   -1.394543    1.695109
     24          7           0       -1.223086   -0.422981    0.107115
     25          6           0       -2.425860   -0.746906    0.868070
     26          9           0       -2.252711   -1.968146    1.466005
     27          9           0       -2.517624    0.131730    1.901432
     28          6           0       -3.792450   -0.860709    0.115846
     29          9           0       -4.750087   -1.297835    0.994215
     30          8           0       -4.310696    0.301098   -0.526305
     31          6           0       -5.094252    1.088571    0.331830
     32          9           0       -6.310456    0.528644    0.468125
     33          9           0       -4.523258    1.227720    1.536743
     34          9           0       -5.248662    2.306318   -0.222098
     35          6           0       -3.598457   -1.946087   -0.941833
     36          9           0       -2.647341   -1.592778   -1.844927
     37          9           0       -3.221656   -3.134573   -0.425353
     38          9           0       -4.736715   -2.163125   -1.644881
     39          6           0       -1.203320    0.759888   -0.582065
     40          8           0       -2.140540    1.551188   -0.539070
     41          1           0        1.237000    5.114421   -0.051528
     42          1           0       -1.003238    2.466139   -2.492894
     43          1           0        0.651337    2.087032   -2.963594
 ---------------------------------------------------------------------

 SCF Done:  E(UCAM-B3LYP) =  -2871.58114971     A.U. after   29 cycles

 Alpha  occ. eigenvalues --  -24.86635 -24.86302 -24.85898 -24.85776 -24.85475
 Alpha  occ. eigenvalues --  -24.85369 -24.85354 -24.85217 -24.85140 -24.84941
 Alpha  occ. eigenvalues --  -24.84855 -24.84813 -24.84693 -24.84672 -24.84654
 Alpha  occ. eigenvalues --  -24.84549 -24.84484 -24.84180 -19.34676 -19.34344
 Alpha  occ. eigenvalues --  -19.29492 -19.29048 -19.28311 -14.57405 -14.56859
 Alpha  occ. eigenvalues --  -14.56627 -10.61015 -10.61005 -10.57419 -10.57361
 Alpha  occ. eigenvalues --  -10.56077 -10.56036 -10.51560 -10.51532 -10.51011
 Alpha  occ. eigenvalues --  -10.50881 -10.50326 -10.48838 -10.48214 -10.45115
 Alpha  occ. eigenvalues --   -1.44585  -1.44515  -1.43842  -1.43836  -1.41404
 Alpha  occ. eigenvalues --   -1.41221  -1.39066  -1.37968  -1.35260  -1.35179
 Alpha  occ. eigenvalues --   -1.34899  -1.34873  -1.34341  -1.34166  -1.34095
 Alpha  occ. eigenvalues --   -1.34082  -1.33835  -1.33544  -1.28206  -1.23249
 Alpha  occ. eigenvalues --   -1.22475  -1.22257  -1.22145  -1.14744  -1.13268
 Alpha  occ. eigenvalues --   -1.12568  -1.05817  -0.97164  -0.95940  -0.94889
 Alpha  occ. eigenvalues --   -0.88696  -0.87897  -0.83644  -0.83482  -0.82630
 Alpha  occ. eigenvalues --   -0.82528  -0.80059  -0.79453  -0.77428  -0.76727
 Alpha  occ. eigenvalues --   -0.75775  -0.74702  -0.74528  -0.73674  -0.73230
 Alpha  occ. eigenvalues --   -0.72321  -0.72021  -0.71237  -0.71180  -0.70750
 Alpha  occ. eigenvalues --   -0.70687  -0.70488  -0.69876  -0.69470  -0.69389
 Alpha  occ. eigenvalues --   -0.68778  -0.68297  -0.68018  -0.66976  -0.66538
 Alpha  occ. eigenvalues --   -0.64634  -0.63749  -0.62494  -0.61903  -0.60954
 Alpha  occ. eigenvalues --   -0.59847  -0.59513  -0.59137  -0.58814  -0.58534
 Alpha  occ. eigenvalues --   -0.58273  -0.58206  -0.58107  -0.57879  -0.57662
 Alpha  occ. eigenvalues --   -0.57429  -0.57041  -0.56800  -0.56758  -0.56634
 Alpha  occ. eigenvalues --   -0.56059  -0.55891  -0.55750  -0.55399  -0.55012
 Alpha  occ. eigenvalues --   -0.54446  -0.54294  -0.54055  -0.53910  -0.53715
 Alpha  occ. eigenvalues --   -0.53600  -0.53479  -0.53117  -0.53067  -0.52862
 Alpha  occ. eigenvalues --   -0.52816  -0.52298  -0.52159  -0.51936  -0.51466
 Alpha  occ. eigenvalues --   -0.51439  -0.51276  -0.51016  -0.50879  -0.50755
 Alpha  occ. eigenvalues --   -0.49871  -0.49754  -0.46324  -0.46037  -0.44679
 Alpha  occ. eigenvalues --   -0.44394  -0.43132  -0.42610  -0.42209  -0.40263
 Alpha virt. eigenvalues --   -0.07440  -0.06403  -0.04764  -0.02938   0.02359
 Alpha virt. eigenvalues --    0.02763   0.04058   0.05609   0.06807   0.07622
 Alpha virt. eigenvalues --    0.09912   0.11129   0.11414   0.12768   0.14878

  Beta  occ. eigenvalues --  -24.86635 -24.86302 -24.85898 -24.85776 -24.85475
  Beta  occ. eigenvalues --  -24.85369 -24.85354 -24.85217 -24.85140 -24.84941
  Beta  occ. eigenvalues --  -24.84855 -24.84812 -24.84693 -24.84672 -24.84654
  Beta  occ. eigenvalues --  -24.84549 -24.84483 -24.84180 -19.34676 -19.34343
  Beta  occ. eigenvalues --  -19.29478 -19.29034 -19.28311 -14.57412 -14.56857
  Beta  occ. eigenvalues --  -14.56624 -10.61015 -10.61005 -10.57419 -10.57361
  Beta  occ. eigenvalues --  -10.56077 -10.56036 -10.51560 -10.51532 -10.51011
  Beta  occ. eigenvalues --  -10.50881 -10.50326 -10.48222 -10.47366 -10.45095
  Beta  occ. eigenvalues --   -1.44585  -1.44514  -1.43842  -1.43836  -1.41404
  Beta  occ. eigenvalues --   -1.41220  -1.39066  -1.37968  -1.35260  -1.35179
  Beta  occ. eigenvalues --   -1.34899  -1.34873  -1.34341  -1.34166  -1.34095
  Beta  occ. eigenvalues --   -1.34082  -1.33835  -1.33544  -1.28196  -1.23230
  Beta  occ. eigenvalues --   -1.22463  -1.22257  -1.22142  -1.14717  -1.13177
  Beta  occ. eigenvalues --   -1.12556  -1.02341  -0.96919  -0.95939  -0.94119
  Beta  occ. eigenvalues --   -0.88673  -0.87886  -0.83545  -0.83463  -0.82627
  Beta  occ. eigenvalues --   -0.82513  -0.80006  -0.79397  -0.77425  -0.76330
  Beta  occ. eigenvalues --   -0.75165  -0.74683  -0.74512  -0.73667  -0.73214
  Beta  occ. eigenvalues --   -0.72311  -0.71983  -0.71234  -0.71170  -0.70719
  Beta  occ. eigenvalues --   -0.70577  -0.70323  -0.69825  -0.69460  -0.69361
  Beta  occ. eigenvalues --   -0.68718  -0.68285  -0.67991  -0.66941  -0.66506
  Beta  occ. eigenvalues --   -0.64461  -0.62495  -0.61982  -0.61393  -0.60911
  Beta  occ. eigenvalues --   -0.59734  -0.59464  -0.58978  -0.58784  -0.58503
  Beta  occ. eigenvalues --   -0.58264  -0.58194  -0.57936  -0.57862  -0.57651
  Beta  occ. eigenvalues --   -0.57418  -0.56998  -0.56797  -0.56723  -0.56612
  Beta  occ. eigenvalues --   -0.56019  -0.55841  -0.55721  -0.55381  -0.54925
  Beta  occ. eigenvalues --   -0.54410  -0.54294  -0.54053  -0.53721  -0.53584
  Beta  occ. eigenvalues --   -0.53481  -0.53090  -0.53049  -0.52846  -0.52326
  Beta  occ. eigenvalues --   -0.52159  -0.51959  -0.51735  -0.51465  -0.51436
  Beta  occ. eigenvalues --   -0.51274  -0.51010  -0.50875  -0.50753  -0.49868
  Beta  occ. eigenvalues --   -0.49747  -0.46320  -0.46014  -0.44615  -0.44385
  Beta  occ. eigenvalues --   -0.43086  -0.42577  -0.42165  -0.40248
  Beta virt. eigenvalues --   -0.29326  -0.05699  -0.04697  -0.02921  -0.01440
  Beta virt. eigenvalues --    0.02454   0.02776   0.04063   0.05622   0.07246
  Beta virt. eigenvalues --    0.08126   0.10203   0.11256   0.11771   0.12909

 Mulliken charges and spin densities:
               1          2
     1  C   -0.027518   0.538404
     2  C    0.492081   0.402853
     3  C   -0.214663   0.002616
     4  N   -0.589275  -0.001130
     5  C    0.859668  -0.000427
     6  O   -0.477478   0.004956
     7  N   -0.632256   0.000879
     8  C    0.768606  -0.000001
     9  F   -0.256759   0.000040
    10  F   -0.241403  -0.000011
    11  C    0.418677   0.000041
    12  F   -0.263478   0.000085
    13  O   -0.517617   0.000032
    14  C    1.011183  -0.000002
    15  F   -0.244327   0.000000
    16  F   -0.239512   0.000001
    17  F   -0.247425   0.000002
    18  C    0.824054   0.000002
    19  F   -0.231201   0.000000
    20  F   -0.255426   0.000009
    21  F   -0.250186   0.000000
    22  C    0.824466  -0.000108
    23  O   -0.440154  -0.000272
    24  N   -0.618645   0.001247
    25  C    0.770838  -0.000016
    26  F   -0.254774  -0.000012
    27  F   -0.246884   0.000079
    28  C    0.416173  -0.000003
    29  F   -0.264697   0.000001
    30  O   -0.510738   0.000033
    31  C    1.013420  -0.000003
    32  F   -0.245084   0.000002
    33  F   -0.245224   0.000002
    34  F   -0.244910   0.000000
    35  C    0.810077   0.000004
    36  F   -0.252965   0.000009
    37  F   -0.234474   0.000000
    38  F   -0.244956   0.000001
    39  C    0.841119  -0.001016
    40  O   -0.471814   0.005105
    41  H    0.330395  -0.018552
    42  H    0.289778   0.031445
    43  H    0.293307   0.033706
 Sum of Mulliken charges =   1.00000   1.00000

 Dipole moment (field-independent basis, Debye):
    X=              2.1107    Y=             17.1780    Z=             -7.0052  Tot=             18.6712
 Quadrupole moment (field-independent basis, Debye-Ang):
   XX=           -213.2301   YY=           -139.5110   ZZ=           -200.2959
   XY=             16.1694   XZ=              1.5831   YZ=            -13.2187

 Normal termination of Gaussian 09 at Sun Mar  3 18:13:23 2024.
