 Gaussian 09, Revision D.01,
 Gaussian 09:  ES64L-G09RevD.01 24-Apr-2013

 ----------------------------------------------------------------------
 #p CAM-B3LYP/6-31G(d,p) SCRF=(PCM,Solvent=Generic,Read) NoSymm out=wfn
 ----------------------------------------------------------------------

 -------------------
 Title A1452355791_0
 -------------------
 Symbolic Z-matrix:
 Charge =  0 Multiplicity = 1

                          Input orientation:
 ---------------------------------------------------------------------
 Center     Atomic      Atomic             Coordinates (Angstroms)
 Number     Number       Type             X           Y           Z
 ---------------------------------------------------------------------
      1          6           0        3.847901   -3.235709   -0.154635
      2          6           0        2.972569   -2.128933    0.409624
      3          6           0        2.227433   -1.383368   -0.699524
      4          7           0        1.386166   -0.317269   -0.153771
      5          6           0        1.935543    0.941670   -0.018674
      6          8           0        3.113507    1.175243   -0.292446
      7          7           0        1.073296    1.926812    0.416114
      8          6           0        1.549287    3.309054    0.419977
      9          6           0        1.376584    3.971919   -0.939840
     10          6           0       -0.252972    1.688166    0.712605
     11          8           0       -1.058074    2.609779    0.838741
     12          7           0       -0.618049    0.371488    0.837133
     13          6           0       -1.998268    0.089907    1.203973
     14          9           0       -2.368083    0.962471    2.186460
     15          9           0       -2.051241   -1.113199    1.838869
     16          6           0       -3.014366    0.140596    0.030157
     17          9           0       -2.924485    1.380711   -0.562325
     18          8           0       -2.703588   -0.734820   -1.061722
     19          6           0       -3.209929   -2.042942   -0.939002
     20          9           0       -2.992010   -2.541893    0.282646
     21          9           0       -2.611818   -2.826258   -1.854287
     22          9           0       -4.530344   -2.031469   -1.185640
     23          6           0       -4.419525    0.045066    0.639808
     24          9           0       -5.367059    0.115449   -0.328834
     25          9           0       -4.684366    1.052231    1.501389
     26          9           0       -4.626113   -1.109722    1.306764
     27          6           0        0.101050   -0.627404    0.237303
     28          8           0       -0.381579   -1.740782    0.031126
     29          1           0        3.247388   -3.971667   -0.698736
     30          1           0        4.599422   -2.830522   -0.839712
     31          1           0        4.370768   -3.755254    0.654408
     32          1           0        3.595814   -1.429072    0.978719
     33          1           0        2.255952   -2.560376    1.118486
     34          1           0        1.604467   -2.085516   -1.266097
     35          1           0        2.945603   -0.955407   -1.408989
     36          1           0        2.607508    3.330262    0.704130
     37          1           0        1.002135    3.881546    1.177762
     38          1           0        1.737822    5.004358   -0.907260
     39          1           0        1.937329    3.437862   -1.713799
     40          1           0        0.324324    3.986989   -1.241651
 ---------------------------------------------------------------------

 SCF Done:  E(RCAM-B3LYP) =  -1827.69188218     A.U. after   13 cycles

 Alpha  occ. eigenvalues --  -24.83164 -24.83089 -24.83018 -24.83008 -24.82932
 Alpha  occ. eigenvalues --  -24.82741 -24.82379 -24.82378 -24.82243 -19.32731
 Alpha  occ. eigenvalues --  -19.22969 -19.22960 -19.22541 -14.51838 -14.49334
 Alpha  occ. eigenvalues --  -14.49232 -10.59160 -10.55099 -10.52624 -10.48768
 Alpha  occ. eigenvalues --  -10.44833 -10.44734 -10.43704 -10.31101 -10.30852
 Alpha  occ. eigenvalues --  -10.26251 -10.25670 -10.25043  -1.42891  -1.41460
 Alpha  occ. eigenvalues --   -1.38685  -1.35040  -1.33369  -1.32949  -1.32331
 Alpha  occ. eigenvalues --   -1.31876  -1.31071  -1.21532  -1.20074  -1.16464
 Alpha  occ. eigenvalues --   -1.16188  -1.08517  -1.06196  -1.04719  -0.92657
 Alpha  occ. eigenvalues --   -0.88529  -0.86245  -0.83898  -0.82064  -0.80628
 Alpha  occ. eigenvalues --   -0.77944  -0.77168  -0.74659  -0.73383  -0.72943
 Alpha  occ. eigenvalues --   -0.71822  -0.71220  -0.70417  -0.69089  -0.68416
 Alpha  occ. eigenvalues --   -0.68031  -0.67658  -0.66599  -0.65432  -0.63481
 Alpha  occ. eigenvalues --   -0.60903  -0.59352  -0.59071  -0.57508  -0.56840
 Alpha  occ. eigenvalues --   -0.56177  -0.55689  -0.55422  -0.55295  -0.55151
 Alpha  occ. eigenvalues --   -0.54679  -0.54483  -0.54024  -0.53675  -0.53130
 Alpha  occ. eigenvalues --   -0.52962  -0.52643  -0.52406  -0.51692  -0.51305
 Alpha  occ. eigenvalues --   -0.50734  -0.50530  -0.50379  -0.50003  -0.49599
 Alpha  occ. eigenvalues --   -0.49062  -0.48522  -0.48455  -0.47876  -0.47599
 Alpha  occ. eigenvalues --   -0.46398  -0.45409  -0.44765  -0.43787  -0.43132
 Alpha  occ. eigenvalues --   -0.42138  -0.41754  -0.40067  -0.38999  -0.38599
 Alpha  occ. eigenvalues --   -0.37414  -0.35709  -0.35022  -0.34629
 Alpha virt. eigenvalues --    0.01701   0.02590   0.05615   0.09443   0.12580
 Alpha virt. eigenvalues --    0.13777   0.14505   0.15942   0.17232   0.17833
 Alpha virt. eigenvalues --    0.18277   0.18816   0.19479   0.19779   0.20086

 Mulliken charges:
               1
     1  C   -0.328459
     2  C   -0.184428
     3  C   -0.053788
     4  N   -0.579696
     5  C    0.828613
     6  O   -0.527894
     7  N   -0.564701
     8  C   -0.062224
     9  C   -0.328259
    10  C    0.822564
    11  O   -0.507371
    12  N   -0.631849
    13  C    0.764907
    14  F   -0.260413
    15  F   -0.252437
    16  C    0.442096
    17  F   -0.264749
    18  O   -0.510066
    19  C    1.011431
    20  F   -0.240300
    21  F   -0.245279
    22  F   -0.248925
    23  C    0.800207
    24  F   -0.260655
    25  F   -0.244610
    26  F   -0.247262
    27  C    0.836213
    28  O   -0.520200
    29  H    0.114130
    30  H    0.113805
    31  H    0.115026
    32  H    0.116957
    33  H    0.116516
    34  H    0.149564
    35  H    0.148169
    36  H    0.153049
    37  H    0.150140
    38  H    0.126299
    39  H    0.124935
    40  H    0.128946
 Sum of Mulliken charges =   0.00000

 Dipole moment (field-independent basis, Debye):
    X=              3.1530    Y=              0.1514    Z=             -0.2925  Tot=              3.1701
 Quadrupole moment (field-independent basis, Debye-Ang):
   XX=           -164.2123   YY=           -152.7659   ZZ=           -152.9519
   XY=              0.2345   XZ=              3.1139   YZ=             -0.2452

 Normal termination of Gaussian 09 at Sun Mar  3 17:38:19 2024.
