 Gaussian 09, Revision D.01,
 Gaussian 09:  ES64L-G09RevD.01 24-Apr-2013

 ----------------------------------------------------------------------
 #p CAM-B3LYP/6-31G(d,p) SCRF=(PCM,Solvent=Generic,Read) NoSymm out=wfn
 ----------------------------------------------------------------------

 --------------------
 Title A1452355791_p1
 --------------------
 Symbolic Z-matrix:
 Charge =  1 Multiplicity = 2

                          Input orientation:
 ---------------------------------------------------------------------
 Center     Atomic      Atomic             Coordinates (Angstroms)
 Number     Number       Type             X           Y           Z
 ---------------------------------------------------------------------
      1          6           0        3.847901   -3.235709   -0.154635
      2          6           0        2.972569   -2.128933    0.409624
      3          6           0        2.227433   -1.383368   -0.699524
      4          7           0        1.386166   -0.317269   -0.153771
      5          6           0        1.935543    0.941670   -0.018674
      6          8           0        3.113507    1.175243   -0.292446
      7          7           0        1.073296    1.926812    0.416114
      8          6           0        1.549287    3.309054    0.419977
      9          6           0        1.376584    3.971919   -0.939840
     10          6           0       -0.252972    1.688166    0.712605
     11          8           0       -1.058074    2.609779    0.838741
     12          7           0       -0.618049    0.371488    0.837133
     13          6           0       -1.998268    0.089907    1.203973
     14          9           0       -2.368083    0.962471    2.186460
     15          9           0       -2.051241   -1.113199    1.838869
     16          6           0       -3.014366    0.140596    0.030157
     17          9           0       -2.924485    1.380711   -0.562325
     18          8           0       -2.703588   -0.734820   -1.061722
     19          6           0       -3.209929   -2.042942   -0.939002
     20          9           0       -2.992010   -2.541893    0.282646
     21          9           0       -2.611818   -2.826258   -1.854287
     22          9           0       -4.530344   -2.031469   -1.185640
     23          6           0       -4.419525    0.045066    0.639808
     24          9           0       -5.367059    0.115449   -0.328834
     25          9           0       -4.684366    1.052231    1.501389
     26          9           0       -4.626113   -1.109722    1.306764
     27          6           0        0.101050   -0.627404    0.237303
     28          8           0       -0.381579   -1.740782    0.031126
     29          1           0        3.247388   -3.971667   -0.698736
     30          1           0        4.599422   -2.830522   -0.839712
     31          1           0        4.370768   -3.755254    0.654408
     32          1           0        3.595814   -1.429072    0.978719
     33          1           0        2.255952   -2.560376    1.118486
     34          1           0        1.604467   -2.085516   -1.266097
     35          1           0        2.945603   -0.955407   -1.408989
     36          1           0        2.607508    3.330262    0.704130
     37          1           0        1.002135    3.881546    1.177762
     38          1           0        1.737822    5.004358   -0.907260
     39          1           0        1.937329    3.437862   -1.713799
     40          1           0        0.324324    3.986989   -1.241651
 ---------------------------------------------------------------------

 SCF Done:  E(UCAM-B3LYP) =  -1827.37556196     A.U. after   83 cycles

 Alpha  occ. eigenvalues --  -24.86545 -24.86493 -24.86055 -24.85898 -24.85701
 Alpha  occ. eigenvalues --  -24.85427 -24.85340 -24.85190 -24.84556 -19.36117
 Alpha  occ. eigenvalues --  -19.34689 -19.31099 -19.30383 -14.64646 -14.59734
 Alpha  occ. eigenvalues --  -14.58827 -10.61916 -10.57619 -10.57218 -10.54013
 Alpha  occ. eigenvalues --  -10.52234 -10.52109 -10.51971 -10.39216 -10.36760
 Alpha  occ. eigenvalues --  -10.33060 -10.30172 -10.29274  -1.45541  -1.43923
 Alpha  occ. eigenvalues --   -1.42685  -1.38327  -1.36203  -1.35424  -1.35230
 Alpha  occ. eigenvalues --   -1.34559  -1.33960  -1.30997  -1.25891  -1.24395
 Alpha  occ. eigenvalues --   -1.23368  -1.17702  -1.15386  -1.14034  -0.96973
 Alpha  occ. eigenvalues --   -0.95581  -0.92705  -0.90359  -0.87968  -0.85409
 Alpha  occ. eigenvalues --   -0.84919  -0.82957  -0.81404  -0.79179  -0.77427
 Alpha  occ. eigenvalues --   -0.76440  -0.74931  -0.74450  -0.73508  -0.72544
 Alpha  occ. eigenvalues --   -0.71777  -0.70644  -0.70091  -0.69283  -0.69056
 Alpha  occ. eigenvalues --   -0.67545  -0.66719  -0.64412  -0.63325  -0.62316
 Alpha  occ. eigenvalues --   -0.61920  -0.61364  -0.61003  -0.60358  -0.59980
 Alpha  occ. eigenvalues --   -0.59207  -0.59114  -0.58865  -0.58328  -0.57808
 Alpha  occ. eigenvalues --   -0.57426  -0.56712  -0.56109  -0.56024  -0.55780
 Alpha  occ. eigenvalues --   -0.55342  -0.54603  -0.53833  -0.53402  -0.53002
 Alpha  occ. eigenvalues --   -0.52871  -0.52270  -0.52033  -0.51808  -0.51232
 Alpha  occ. eigenvalues --   -0.50889  -0.50594  -0.50004  -0.49388  -0.48289
 Alpha  occ. eigenvalues --   -0.48192  -0.47285  -0.46532  -0.45866  -0.45498
 Alpha  occ. eigenvalues --   -0.45038  -0.44471  -0.43499  -0.42743
 Alpha virt. eigenvalues --   -0.06674  -0.05520   0.01732   0.03524   0.06031
 Alpha virt. eigenvalues --    0.08400   0.09579   0.10813   0.11779   0.12006
 Alpha virt. eigenvalues --    0.13559   0.14745   0.14897   0.15330   0.15769

  Beta  occ. eigenvalues --  -24.86541 -24.86489 -24.86053 -24.85899 -24.85700
  Beta  occ. eigenvalues --  -24.85427 -24.85339 -24.85190 -24.84556 -19.36107
  Beta  occ. eigenvalues --  -19.34028 -19.30834 -19.30457 -14.63575 -14.59207
  Beta  occ. eigenvalues --  -14.58884 -10.61916 -10.57619 -10.57217 -10.54227
  Beta  occ. eigenvalues --  -10.52236 -10.52203 -10.52065 -10.39177 -10.36756
  Beta  occ. eigenvalues --  -10.32905 -10.30106 -10.29253  -1.45540  -1.43922
  Beta  occ. eigenvalues --   -1.42680  -1.38324  -1.36200  -1.35422  -1.35224
  Beta  occ. eigenvalues --   -1.34558  -1.33960  -1.30193  -1.25109  -1.24006
  Beta  occ. eigenvalues --   -1.23339  -1.16663  -1.14522  -1.13175  -0.96791
  Beta  occ. eigenvalues --   -0.95243  -0.92404  -0.90223  -0.87734  -0.85125
  Beta  occ. eigenvalues --   -0.84847  -0.82744  -0.81162  -0.79000  -0.77271
  Beta  occ. eigenvalues --   -0.76389  -0.74649  -0.73918  -0.73463  -0.72404
  Beta  occ. eigenvalues --   -0.71765  -0.70558  -0.69749  -0.69266  -0.67844
  Beta  occ. eigenvalues --   -0.66927  -0.66581  -0.63704  -0.62805  -0.62062
  Beta  occ. eigenvalues --   -0.61229  -0.60553  -0.60263  -0.59866  -0.59766
  Beta  occ. eigenvalues --   -0.59113  -0.58992  -0.58605  -0.58086  -0.57733
  Beta  occ. eigenvalues --   -0.57377  -0.56684  -0.56083  -0.55900  -0.55654
  Beta  occ. eigenvalues --   -0.55006  -0.53792  -0.53702  -0.53400  -0.52947
  Beta  occ. eigenvalues --   -0.52304  -0.52039  -0.51933  -0.51644  -0.50968
  Beta  occ. eigenvalues --   -0.50813  -0.50466  -0.49172  -0.48974  -0.47477
  Beta  occ. eigenvalues --   -0.47082  -0.46560  -0.46296  -0.45570  -0.44929
  Beta  occ. eigenvalues --   -0.43430  -0.42512  -0.40648
  Beta virt. eigenvalues --   -0.28462  -0.05911  -0.04495   0.01772   0.04563
  Beta virt. eigenvalues --    0.06307   0.08643   0.09649   0.11125   0.11838
  Beta virt. eigenvalues --    0.12250   0.13637   0.14901   0.14964   0.15382

 Mulliken charges and spin densities:
               1          2
     1  C   -0.332303   0.012914
     2  C   -0.206698   0.077938
     3  C   -0.098451   0.012570
     4  N   -0.466861   0.486983
     5  C    0.860446  -0.057769
     6  O   -0.455608  -0.023640
     7  N   -0.516203   0.239908
     8  C   -0.096204  -0.002992
     9  C   -0.335375   0.032068
    10  C    0.863683  -0.054667
    11  O   -0.423126   0.104043
    12  N   -0.635765  -0.016554
    13  C    0.766341  -0.000743
    14  F   -0.246402   0.000984
    15  F   -0.241421   0.000884
    16  C    0.443436  -0.000628
    17  F   -0.259684   0.000260
    18  O   -0.513309   0.002733
    19  C    1.012922  -0.000587
    20  F   -0.239751  -0.000052
    21  F   -0.240651   0.000103
    22  F   -0.240978   0.000110
    23  C    0.809012  -0.000168
    24  F   -0.253610  -0.000048
    25  F   -0.240070   0.000011
    26  F   -0.242945   0.000014
    27  C    0.887924  -0.122594
    28  O   -0.388528   0.260695
    29  H    0.138177  -0.000483
    30  H    0.139155   0.000056
    31  H    0.152446   0.009898
    32  H    0.160483  -0.002386
    33  H    0.157565  -0.000967
    34  H    0.215865   0.013790
    35  H    0.216924   0.013660
    36  H    0.195550   0.006968
    37  H    0.194330   0.006150
    38  H    0.165021   0.002974
    39  H    0.145007  -0.000955
    40  H    0.149655  -0.000479
 Sum of Mulliken charges =   1.00000   1.00000

 Dipole moment (field-independent basis, Debye):
    X=              8.1405    Y=              0.7243    Z=              0.0038  Tot=              8.1727
 Quadrupole moment (field-independent basis, Debye-Ang):
   XX=           -137.8282   YY=           -125.6167   ZZ=           -146.3450
   XY=             -2.7279   XZ=              1.2049   YZ=              1.2103

 Normal termination of Gaussian 09 at Sun Mar  3 17:41:47 2024.
