 Gaussian 09, Revision D.01,
 Gaussian 09:  ES64L-G09RevD.01 24-Apr-2013

 ----------------------------------------------------------------------
 #p CAM-B3LYP/6-31G(d,p) SCRF=(PCM,Solvent=Generic,Read) NoSymm out=wfn
 ----------------------------------------------------------------------

 ----------------
 Title EHOPA0_neu
 ----------------
 Symbolic Z-matrix:
 Charge =  0 Multiplicity = 1

                          Input orientation:
 ---------------------------------------------------------------------
 Center     Atomic      Atomic             Coordinates (Angstroms)
 Number     Number       Type             X           Y           Z
 ---------------------------------------------------------------------
      1          6           0       -7.278090   -0.881099   -1.960567
      2          6           0       -6.580964   -1.270937   -0.665819
      3          6           0       -5.442429   -0.323526   -0.274855
      4          6           0       -4.264929   -0.362321   -1.255377
      5          6           0       -3.046805    0.497883   -0.845579
      6          6           0       -3.358256    2.000928   -0.695041
      7          6           0       -3.931782    2.639326   -1.952449
      8          6           0       -2.366482   -0.010358    0.442434
      9          8           0       -2.103250   -1.413816    0.431460
     10          6           0       -1.035711   -1.835548   -0.412038
     11          6           0        0.341980   -1.428447    0.102192
     12          6           0        0.555978   -1.828955    1.559860
     13          7           0        1.898279   -1.496887    2.002792
     14          6           0        2.247958   -0.210433    2.383355
     15          6           0        3.730080   -0.017843    2.747873
     16          9           0        3.977121    1.176367    3.353972
     17          9           0        4.103653   -0.967548    3.666688
     18          6           0        4.646086   -0.170138    1.513963
     19          9           0        4.442397   -1.412065    0.995535
     20          8           0        6.026408   -0.141679    1.940708
     21          6           0        6.591964    1.068609    1.452425
     22          9           0        7.505355    0.705005    0.526138
     23          9           0        7.259511    1.685180    2.444204
     24          6           0        5.487577    1.910618    0.843694
     25          9           0        5.885395    2.727350   -0.144478
     26          9           0        4.946275    2.705255    1.806251
     27          6           0        4.474954    0.884383    0.431091
     28          6           0        4.636726    0.348581   -0.983458
     29          9           0        4.396898    1.383433   -1.850015
     30          6           0        5.964635   -0.331626   -1.311310
     31          8           0        6.810787    0.445156   -2.019706
     32          8           0        6.314864   -1.446410   -0.959305
     33          9           0        3.601224   -0.524560   -1.210374
     34          9           0        3.225316    1.436715    0.481061
     35          8           0        1.431202    0.708792    2.404301
     36          1           0       -8.143375   -1.530144   -2.130855
     37          1           0       -6.612734   -0.985305   -2.822985
     38          1           0       -7.633447    0.153682   -1.919487
     39          1           0       -7.323340   -1.271757    0.141645
     40          1           0       -6.202775   -2.296605   -0.748947
     41          1           0       -5.837017    0.695365   -0.196211
     42          1           0       -5.098990   -0.610964    0.724871
     43          1           0       -3.942022   -1.402991   -1.383052
     44          1           0       -4.601871   -0.038367   -2.246456
     45          1           0       -2.320706    0.400303   -1.663388
     46          1           0       -4.046587    2.169531    0.141494
     47          1           0       -2.430048    2.529207   -0.440542
     48          1           0       -4.929987    2.253925   -2.180807
     49          1           0       -4.020590    3.722049   -1.815465
     50          1           0       -3.282836    2.460070   -2.815398
     51          1           0       -1.445483    0.547633    0.642021
     52          1           0       -3.020159    0.174591    1.301987
     53          1           0       -1.086969   -2.929533   -0.451559
     54          1           0       -1.186809   -1.482586   -1.436891
     55          1           0        1.110593   -1.891602   -0.528987
     56          1           0        0.475861   -0.345946   -0.003565
     57          1           0       -0.160801   -1.324562    2.216784
     58          1           0        0.434674   -2.910190    1.684565
     59          1           0        2.589469   -2.241264    2.039517
     60          1           0        7.622025   -0.093926   -2.152501
 ---------------------------------------------------------------------

 SCF Done:  E(RCAM-B3LYP) =  -2167.58749265     A.U. after   13 cycles

 Alpha  occ. eigenvalues --  -24.83810 -24.83549 -24.83269 -24.83099 -24.82991
 Alpha  occ. eigenvalues --  -24.82865 -24.82423 -24.82343 -24.81523 -24.81388
 Alpha  occ. eigenvalues --  -19.32183 -19.30452 -19.25806 -19.21556 -19.21439
 Alpha  occ. eigenvalues --  -14.45153 -10.53281 -10.49729 -10.49282 -10.47434
 Alpha  occ. eigenvalues --  -10.47415 -10.44881 -10.43171 -10.39624 -10.30295
 Alpha  occ. eigenvalues --  -10.30031 -10.29285 -10.25840 -10.25287 -10.24853
 Alpha  occ. eigenvalues --  -10.24389 -10.24171 -10.24127 -10.24104 -10.23856
 Alpha  occ. eigenvalues --   -1.40958  -1.38830  -1.38000  -1.37157  -1.35536
 Alpha  occ. eigenvalues --   -1.34647  -1.33231  -1.32082  -1.30969  -1.30119
 Alpha  occ. eigenvalues --   -1.22514  -1.20556  -1.13481  -1.12792  -1.10267
 Alpha  occ. eigenvalues --   -1.01592  -0.98088  -0.90783  -0.89558  -0.88331
 Alpha  occ. eigenvalues --   -0.86540  -0.85748  -0.82987  -0.80660  -0.79267
 Alpha  occ. eigenvalues --   -0.78032  -0.77058  -0.75622  -0.74642  -0.72516
 Alpha  occ. eigenvalues --   -0.71266  -0.70759  -0.70206  -0.69599  -0.68662
 Alpha  occ. eigenvalues --   -0.67944  -0.67294  -0.66537  -0.66119  -0.65666
 Alpha  occ. eigenvalues --   -0.65429  -0.64839  -0.64501  -0.63852  -0.63193
 Alpha  occ. eigenvalues --   -0.62164  -0.60598  -0.58926  -0.58052  -0.57135
 Alpha  occ. eigenvalues --   -0.56753  -0.56664  -0.56462  -0.55705  -0.55556
 Alpha  occ. eigenvalues --   -0.54755  -0.54333  -0.54188  -0.53841  -0.53502
 Alpha  occ. eigenvalues --   -0.53327  -0.53002  -0.52781  -0.52650  -0.52316
 Alpha  occ. eigenvalues --   -0.52160  -0.51950  -0.50945  -0.50793  -0.50381
 Alpha  occ. eigenvalues --   -0.50360  -0.50082  -0.49729  -0.49444  -0.49067
 Alpha  occ. eigenvalues --   -0.48611  -0.48393  -0.48232  -0.47192  -0.46701
 Alpha  occ. eigenvalues --   -0.46449  -0.46008  -0.45534  -0.44936  -0.44091
 Alpha  occ. eigenvalues --   -0.44049  -0.43227  -0.42399  -0.42008  -0.41843
 Alpha  occ. eigenvalues --   -0.41382  -0.40570  -0.40464  -0.39358  -0.38938
 Alpha  occ. eigenvalues --   -0.38135  -0.37598  -0.36489  -0.36121  -0.34733
 Alpha  occ. eigenvalues --   -0.34340  -0.32914  -0.30626
 Alpha virt. eigenvalues --   -0.01039   0.02646   0.04382   0.07171   0.09691
 Alpha virt. eigenvalues --    0.11362   0.12200   0.13010   0.13378   0.13946
 Alpha virt. eigenvalues --    0.14378   0.15635   0.15786   0.17339   0.17952

 Mulliken charges:
               1
     1  C   -0.317832
     2  C   -0.179365
     3  C   -0.176903
     4  C   -0.171609
     5  C   -0.094131
     6  C   -0.181404
     7  C   -0.321654
     8  C    0.058109
     9  O   -0.511247
    10  C    0.053875
    11  C   -0.210880
    12  C   -0.038510
    13  N   -0.542115
    14  C    0.542793
    15  C    0.568314
    16  F   -0.265260
    17  F   -0.278962
    18  C    0.454087
    19  F   -0.270684
    20  O   -0.490534
    21  C    0.747144
    22  F   -0.245061
    23  F   -0.239968
    24  C    0.541765
    25  F   -0.246395
    26  F   -0.256886
    27  C    0.180063
    28  C    0.633533
    29  F   -0.271377
    30  C    0.507492
    31  O   -0.471738
    32  O   -0.438840
    33  F   -0.275127
    34  F   -0.281285
    35  O   -0.510016
    36  H    0.099760
    37  H    0.104862
    38  H    0.100706
    39  H    0.089445
    40  H    0.094227
    41  H    0.089373
    42  H    0.096704
    43  H    0.097271
    44  H    0.091048
    45  H    0.081366
    46  H    0.096806
    47  H    0.097002
    48  H    0.107929
    49  H    0.102152
    50  H    0.102636
    51  H    0.099943
    52  H    0.103746
    53  H    0.103801
    54  H    0.095407
    55  H    0.103205
    56  H    0.125907
    57  H    0.151937
    58  H    0.117084
    59  H    0.286294
    60  H    0.361993
 Sum of Mulliken charges =   0.00000

 Dipole moment (field-independent basis, Debye):
    X=              1.8805    Y=             -1.8383    Z=             -2.9559  Tot=              3.9564
 Quadrupole moment (field-independent basis, Debye-Ang):
   XX=           -183.7963   YY=           -200.1898   ZZ=           -203.9897
   XY=             -3.9697   XZ=            -12.8646   YZ=             -3.7178

 Normal termination of Gaussian 09 at Mon Feb  3 21:38:03 2025.
