 Gaussian 09, Revision D.01,
 Gaussian 09:  ES64L-G09RevD.01 24-Apr-2013

 ----------------------------------------------------------------------
 #p CAM-B3LYP/6-31G(d,p) SCRF=(PCM,Solvent=Generic,Read) NoSymm out=wfn
 ----------------------------------------------------------------------

 ---------------
 Title A139310_0
 ---------------
 Symbolic Z-matrix:
 Charge =  0 Multiplicity = 1

                          Input orientation:
 ---------------------------------------------------------------------
 Center     Atomic      Atomic             Coordinates (Angstroms)
 Number     Number       Type             X           Y           Z
 ---------------------------------------------------------------------
      1          8           0        2.565756    0.480483   -0.946450
      2          6           0        1.470746   -0.064727   -0.859829
      3          7           0        1.287661   -1.248893   -0.188746
      4          6           0        2.471720   -1.984094    0.247377
      5          9           0        3.432780   -1.867367   -0.713273
      6          9           0        2.176457   -3.314421    0.238182
      7          6           0        3.041675   -1.563123    1.626487
      8          9           0        2.125723   -1.859739    2.594679
      9          8           0        3.179955   -0.138659    1.669794
     10          6           0        3.919239    0.312747    2.774424
     11          9           0        3.531759   -0.309207    3.898021
     12          9           0        5.225536    0.102563    2.551759
     13          9           0        3.707977    1.633881    2.915636
     14          6           0        4.306996   -2.410329    1.821258
     15          9           0        4.828297   -2.246814    3.060988
     16          9           0        5.278525   -2.071825    0.944564
     17          9           0        4.078714   -3.733926    1.680480
     18          6           0        0.095537   -1.539654    0.425634
     19          8           0       -0.025278   -2.495538    1.184615
     20          7           0       -0.949923   -0.683207    0.161424
     21          6           0       -2.233191   -0.963122    0.803266
     22          9           0       -2.968753    0.176600    0.882562
     23          9           0       -1.976323   -1.247075    2.120371
     24          6           0       -3.071661   -2.132338    0.210479
     25          9           0       -2.193973   -3.108430   -0.216371
     26          8           0       -3.867483   -2.836120    1.176192
     27          6           0       -5.015275   -2.146055    1.597248
     28          9           0       -5.542241   -2.786985    2.654658
     29          9           0       -5.918927   -2.126355    0.606489
     30          9           0       -4.707919   -0.894114    1.956706
     31          6           0       -3.807467   -1.650158   -1.038749
     32          9           0       -4.583883   -2.636097   -1.550876
     33          9           0       -2.934670   -1.307536   -2.014975
     34          9           0       -4.606826   -0.592092   -0.805451
     35          6           0       -0.890323    0.271048   -0.822629
     36          8           0       -1.877743    0.920568   -1.152054
     37          7           0        0.332928    0.481735   -1.401584
     38          6           0        0.486277    1.630839   -2.291369
     39          9           0       -0.533400    1.627652   -3.189954
     40          9           0        1.583414    1.416474   -3.071585
     41          6           0        0.591854    3.002466   -1.571865
     42          9           0        1.636157    2.929539   -0.676925
     43          8           0       -0.517047    3.297396   -0.712586
     44          6           0       -1.600094    3.944429   -1.340860
     45          9           0       -1.277149    5.225965   -1.574879
     46          9           0       -2.659344    3.910936   -0.514273
     47          9           0       -1.917656    3.346006   -2.493924
     48          6           0        0.980266    4.045987   -2.627697
     49          9           0        1.126809    5.269142   -2.061482
     50          9           0        0.057024    4.170035   -3.603567
     51          9           0        2.156765    3.761508   -3.228653
 ---------------------------------------------------------------------

 SCF Done:  E(RCAM-B3LYP) =  -3881.80729307     A.U. after   13 cycles

 Alpha  occ. eigenvalues --  -24.84509 -24.84392 -24.84074 -24.84051 -24.84026
 Alpha  occ. eigenvalues --  -24.83936 -24.83915 -24.83883 -24.83843 -24.83821
 Alpha  occ. eigenvalues --  -24.83818 -24.83736 -24.83716 -24.83632 -24.83596
 Alpha  occ. eigenvalues --  -24.83592 -24.83586 -24.83576 -24.83575 -24.83521
 Alpha  occ. eigenvalues --  -24.83457 -24.83444 -24.83392 -24.83240 -24.83121
 Alpha  occ. eigenvalues --  -24.82911 -24.82804 -19.33688 -19.33631 -19.33547
 Alpha  occ. eigenvalues --  -19.26028 -19.25570 -19.25489 -14.54801 -14.54379
 Alpha  occ. eigenvalues --  -14.54362 -10.60147 -10.60043 -10.59745 -10.55941
 Alpha  occ. eigenvalues --  -10.55856 -10.55740 -10.54401 -10.54293 -10.54190
 Alpha  occ. eigenvalues --  -10.49799 -10.49693 -10.49663 -10.48149 -10.48079
 Alpha  occ. eigenvalues --  -10.48015  -1.43997  -1.43689  -1.43489  -1.42431
 Alpha  occ. eigenvalues --   -1.42173  -1.42043  -1.40038  -1.39930  -1.39665
 Alpha  occ. eigenvalues --   -1.36292  -1.36073  -1.35877  -1.34482  -1.34003
 Alpha  occ. eigenvalues --   -1.34000  -1.33998  -1.33745  -1.33523  -1.33374
 Alpha  occ. eigenvalues --   -1.33269  -1.32916  -1.32831  -1.32609  -1.32539
 Alpha  occ. eigenvalues --   -1.32338  -1.32175  -1.32041  -1.25455  -1.21222
 Alpha  occ. eigenvalues --   -1.21098  -1.20921  -1.19787  -1.19773  -1.11912
 Alpha  occ. eigenvalues --   -1.10076  -1.09956  -0.94727  -0.93792  -0.93457
 Alpha  occ. eigenvalues --   -0.87843  -0.85807  -0.85679  -0.82967  -0.82768
 Alpha  occ. eigenvalues --   -0.82674  -0.80672  -0.80162  -0.77958  -0.77134
 Alpha  occ. eigenvalues --   -0.76391  -0.76000  -0.74601  -0.74059  -0.73681
 Alpha  occ. eigenvalues --   -0.73188  -0.72506  -0.72243  -0.71828  -0.71288
 Alpha  occ. eigenvalues --   -0.71019  -0.70779  -0.70443  -0.69854  -0.69732
 Alpha  occ. eigenvalues --   -0.69359  -0.69063  -0.68788  -0.68581  -0.68487
 Alpha  occ. eigenvalues --   -0.68053  -0.67721  -0.67085  -0.66962  -0.66332
 Alpha  occ. eigenvalues --   -0.65527  -0.65386  -0.64498  -0.64347  -0.63476
 Alpha  occ. eigenvalues --   -0.60466  -0.59884  -0.59581  -0.58773  -0.58286
 Alpha  occ. eigenvalues --   -0.58100  -0.58040  -0.57739  -0.57635  -0.57525
 Alpha  occ. eigenvalues --   -0.57361  -0.57001  -0.56898  -0.56651  -0.56532
 Alpha  occ. eigenvalues --   -0.56378  -0.56165  -0.55986  -0.55931  -0.55858
 Alpha  occ. eigenvalues --   -0.55649  -0.55520  -0.55378  -0.55231  -0.55070
 Alpha  occ. eigenvalues --   -0.54781  -0.54645  -0.54280  -0.54252  -0.54022
 Alpha  occ. eigenvalues --   -0.53871  -0.53678  -0.53384  -0.53168  -0.52918
 Alpha  occ. eigenvalues --   -0.52716  -0.52509  -0.52453  -0.52065  -0.51904
 Alpha  occ. eigenvalues --   -0.51684  -0.51436  -0.51266  -0.51168  -0.51112
 Alpha  occ. eigenvalues --   -0.50927  -0.50784  -0.50628  -0.50506  -0.50391
 Alpha  occ. eigenvalues --   -0.50334  -0.50278  -0.49871  -0.49569  -0.49466
 Alpha  occ. eigenvalues --   -0.49355  -0.49157  -0.48965  -0.48892  -0.48327
 Alpha  occ. eigenvalues --   -0.48278  -0.46376  -0.45311  -0.44579  -0.44368
 Alpha  occ. eigenvalues --   -0.41767  -0.41107  -0.40733  -0.39556  -0.39382
 Alpha  occ. eigenvalues --   -0.37372
 Alpha virt. eigenvalues --   -0.01496  -0.01258   0.04086   0.04403   0.04870
 Alpha virt. eigenvalues --    0.06160   0.06450   0.09319   0.09577   0.12568
 Alpha virt. eigenvalues --    0.13331   0.15067   0.15761   0.16968   0.17404

 Mulliken charges:
               1
     1  O   -0.451520
     2  C    0.830682
     3  N   -0.660045
     4  C    0.761967
     5  F   -0.250829
     6  F   -0.249088
     7  C    0.435030
     8  F   -0.254460
     9  O   -0.506396
    10  C    0.995742
    11  F   -0.241570
    12  F   -0.240733
    13  F   -0.237326
    14  C    0.815515
    15  F   -0.257001
    16  F   -0.244203
    17  F   -0.242002
    18  C    0.851719
    19  O   -0.468089
    20  N   -0.662465
    21  C    0.759400
    22  F   -0.240226
    23  F   -0.264386
    24  C    0.438693
    25  F   -0.271347
    26  O   -0.492494
    27  C    0.977770
    28  F   -0.234475
    29  F   -0.239260
    30  F   -0.234763
    31  C    0.817561
    32  F   -0.254563
    33  F   -0.246607
    34  F   -0.240359
    35  C    0.855780
    36  O   -0.483146
    37  N   -0.653643
    38  C    0.765992
    39  F   -0.242645
    40  F   -0.253567
    41  C    0.439166
    42  F   -0.261462
    43  O   -0.511839
    44  C    1.009788
    45  F   -0.245095
    46  F   -0.240257
    47  F   -0.239080
    48  C    0.804070
    49  F   -0.256535
    50  F   -0.245246
    51  F   -0.242152
 Sum of Mulliken charges =   0.00000

 Dipole moment (field-independent basis, Debye):
    X=             -0.5423    Y=              0.0080    Z=             -0.2200  Tot=              0.5853
 Quadrupole moment (field-independent basis, Debye-Ang):
   XX=           -272.0516   YY=           -273.9032   ZZ=           -267.3948
   XY=             -0.2131   XZ=              0.4954   YZ=              6.4173

 Normal termination of Gaussian 09 at Tue Mar  5 16:48:41 2024.
