 Gaussian 09, Revision D.01,
 Gaussian 09:  ES64L-G09RevD.01 24-Apr-2013

 ----------------------------------------------------------------------
 #p CAM-B3LYP/6-31G(d,p) SCRF=(PCM,Solvent=Generic,Read) NoSymm out=wfn
 ----------------------------------------------------------------------

 ----------------
 Title A139310_p1
 ----------------
 Symbolic Z-matrix:
 Charge =  1 Multiplicity = 2

                          Input orientation:
 ---------------------------------------------------------------------
 Center     Atomic      Atomic             Coordinates (Angstroms)
 Number     Number       Type             X           Y           Z
 ---------------------------------------------------------------------
      1          8           0       -2.517788    0.349408    0.491160
      2          6           0       -1.366069    0.217537    0.093985
      3          7           0       -0.792993   -1.018125   -0.098918
      4          6           0       -1.571349   -2.207176    0.258542
      5          9           0       -2.162753   -1.948869    1.471415
      6          9           0       -0.731154   -3.238331    0.561683
      7          6           0       -2.679690   -2.698163   -0.714640
      8          9           0       -3.343130   -3.724660   -0.092913
      9          8           0       -3.643618   -1.658254   -0.904431
     10          6           0       -4.646404   -1.974835   -1.832751
     11          9           0       -4.167086   -1.755138   -3.069436
     12          9           0       -5.697175   -1.160396   -1.629801
     13          9           0       -5.049313   -3.248179   -1.714280
     14          6           0       -2.007255   -3.228035   -1.982203
     15          9           0       -1.422679   -2.214098   -2.666382
     16          9           0       -2.899444   -3.796446   -2.826394
     17          9           0       -1.072265   -4.164276   -1.733269
     18          6           0        0.385710   -1.179520   -0.785966
     19          8           0        0.791655   -2.291167   -1.108284
     20          7           0        1.081900   -0.037455   -1.090159
     21          6           0        2.429279   -0.175842   -1.639269
     22          9           0        2.412044   -1.146465   -2.596505
     23          9           0        2.718667    0.955588   -2.342376
     24          6           0        3.542208   -0.471684   -0.600646
     25          9           0        3.653244    0.590671    0.248957
     26          8           0        3.140128   -1.570654    0.225600
     27          6           0        4.179818   -2.068671    1.027521
     28          9           0        3.640662   -2.837808    1.990575
     29          9           0        4.863385   -1.069112    1.604267
     30          9           0        4.998232   -2.821526    0.276896
     31          6           0        4.832206   -0.629538   -1.418099
     32          9           0        4.801016   -1.733108   -2.197858
     33          9           0        5.075495    0.427438   -2.222765
     34          9           0        5.917043   -0.750938   -0.615876
     35          6           0        0.742843    1.168983   -0.536548
     36          8           0        1.566325    2.055574   -0.341316
     37          7           0       -0.571355    1.305731   -0.170242
     38          6           0       -1.069399    2.625630    0.200671
     39          9           0       -0.351034    3.594574   -0.441033
     40          9           0       -2.311825    2.752784   -0.371699
     41          6           0       -1.189854    2.996265    1.705270
     42          9           0       -1.974781    2.074997    2.336868
     43          8           0       -1.897074    4.245044    1.783904
     44          6           0       -1.946285    4.778630    3.079839
     45          9           0       -2.187383    3.827090    3.994197
     46          9           0       -0.778519    5.387761    3.344501
     47          9           0       -2.930590    5.694303    3.130963
     48          6           0        0.210776    2.961797    2.318969
     49          9           0        1.036203    3.873290    1.770552
     50          9           0        0.184917    3.199083    3.651003
     51          9           0        0.774509    1.736291    2.176721
 ---------------------------------------------------------------------

 SCF Done:  E(UCAM-B3LYP) =  -3881.44072061     A.U. after   44 cycles

 Alpha  occ. eigenvalues --  -24.93578 -24.93305 -24.92789 -24.92160 -24.91915
 Alpha  occ. eigenvalues --  -24.91721 -24.91647 -24.90980 -24.90836 -24.90700
 Alpha  occ. eigenvalues --  -24.90301 -24.90089 -24.89917 -24.89455 -24.89402
 Alpha  occ. eigenvalues --  -24.89297 -24.89282 -24.89121 -24.89109 -24.89013
 Alpha  occ. eigenvalues --  -24.88991 -24.88722 -24.88701 -24.88464 -24.88436
 Alpha  occ. eigenvalues --  -24.87908 -24.87886 -19.45958 -19.41705 -19.41555
 Alpha  occ. eigenvalues --  -19.40753 -19.40014 -19.38957 -14.67943 -14.67799
 Alpha  occ. eigenvalues --  -14.66685 -10.65824 -10.65316 -10.64477 -10.63886
 Alpha  occ. eigenvalues --  -10.63824 -10.62924 -10.62891 -10.62826 -10.62492
 Alpha  occ. eigenvalues --  -10.61792 -10.61037 -10.60987 -10.57190 -10.57099
 Alpha  occ. eigenvalues --  -10.56580  -1.49887  -1.49739  -1.49360  -1.48933
 Alpha  occ. eigenvalues --   -1.48715  -1.48218  -1.47650  -1.47528  -1.47315
 Alpha  occ. eigenvalues --   -1.43565  -1.42973  -1.42411  -1.41900  -1.41317
 Alpha  occ. eigenvalues --   -1.40607  -1.40425  -1.40081  -1.39538  -1.39335
 Alpha  occ. eigenvalues --   -1.39292  -1.39067  -1.38955  -1.38872  -1.38429
 Alpha  occ. eigenvalues --   -1.38214  -1.38212  -1.37905  -1.37479  -1.35782
 Alpha  occ. eigenvalues --   -1.33947  -1.28159  -1.27579  -1.26824  -1.26411
 Alpha  occ. eigenvalues --   -1.23000  -1.22617  -1.03569  -1.02031  -1.01643
 Alpha  occ. eigenvalues --   -0.97384  -0.96931  -0.96367  -0.91002  -0.90218
 Alpha  occ. eigenvalues --   -0.89789  -0.89046  -0.88486  -0.87971  -0.84820
 Alpha  occ. eigenvalues --   -0.83833  -0.83102  -0.81752  -0.80618  -0.80239
 Alpha  occ. eigenvalues --   -0.79994  -0.79539  -0.79071  -0.78680  -0.78250
 Alpha  occ. eigenvalues --   -0.77730  -0.77105  -0.76773  -0.76585  -0.76028
 Alpha  occ. eigenvalues --   -0.75613  -0.75369  -0.75223  -0.75105  -0.74814
 Alpha  occ. eigenvalues --   -0.74678  -0.74230  -0.73992  -0.73901  -0.73643
 Alpha  occ. eigenvalues --   -0.73583  -0.73294  -0.73117  -0.72961  -0.72475
 Alpha  occ. eigenvalues --   -0.72373  -0.70464  -0.69286  -0.69073  -0.68221
 Alpha  occ. eigenvalues --   -0.67219  -0.66640  -0.66561  -0.66138  -0.64978
 Alpha  occ. eigenvalues --   -0.64332  -0.64116  -0.64034  -0.63906  -0.63604
 Alpha  occ. eigenvalues --   -0.63404  -0.63329  -0.63098  -0.63072  -0.62831
 Alpha  occ. eigenvalues --   -0.62713  -0.62289  -0.62076  -0.61911  -0.61864
 Alpha  occ. eigenvalues --   -0.61615  -0.61427  -0.61276  -0.61092  -0.60943
 Alpha  occ. eigenvalues --   -0.60656  -0.60531  -0.60214  -0.59813  -0.59548
 Alpha  occ. eigenvalues --   -0.59405  -0.59268  -0.59044  -0.58881  -0.58539
 Alpha  occ. eigenvalues --   -0.58460  -0.58119  -0.58076  -0.57884  -0.57645
 Alpha  occ. eigenvalues --   -0.57502  -0.57243  -0.57206  -0.56987  -0.56912
 Alpha  occ. eigenvalues --   -0.56698  -0.56540  -0.56406  -0.56180  -0.55964
 Alpha  occ. eigenvalues --   -0.55866  -0.55597  -0.55528  -0.55127  -0.54998
 Alpha  occ. eigenvalues --   -0.54793  -0.54681  -0.54321  -0.53863  -0.53080
 Alpha  occ. eigenvalues --   -0.52638  -0.52574  -0.51758  -0.51542  -0.51160
 Alpha  occ. eigenvalues --   -0.50351
 Alpha virt. eigenvalues --   -0.14937  -0.14106  -0.05793  -0.04129  -0.03627
 Alpha virt. eigenvalues --   -0.02172  -0.01707   0.00631   0.00964   0.04132
 Alpha virt. eigenvalues --    0.04390   0.05805   0.07696   0.07804   0.08784

  Beta  occ. eigenvalues --  -24.93505 -24.93245 -24.92770 -24.92130 -24.91883
  Beta  occ. eigenvalues --  -24.91721 -24.91645 -24.90953 -24.90815 -24.90694
  Beta  occ. eigenvalues --  -24.90292 -24.90085 -24.89916 -24.89454 -24.89401
  Beta  occ. eigenvalues --  -24.89297 -24.89282 -24.89121 -24.89109 -24.89012
  Beta  occ. eigenvalues --  -24.88991 -24.88721 -24.88701 -24.88463 -24.88435
  Beta  occ. eigenvalues --  -24.87908 -24.87886 -19.44688 -19.41011 -19.40836
  Beta  occ. eigenvalues --  -19.40749 -19.40005 -19.38957 -14.67874 -14.67701
  Beta  occ. eigenvalues --  -14.66637 -10.65824 -10.65315 -10.64478 -10.63891
  Beta  occ. eigenvalues --  -10.63830 -10.63049 -10.62895 -10.62826 -10.62492
  Beta  occ. eigenvalues --  -10.61791 -10.61110 -10.61057 -10.57190 -10.57100
  Beta  occ. eigenvalues --  -10.56581  -1.49851  -1.49690  -1.49352  -1.48911
  Beta  occ. eigenvalues --   -1.48635  -1.48215  -1.47611  -1.47516  -1.47305
  Beta  occ. eigenvalues --   -1.43523  -1.42953  -1.42392  -1.41799  -1.41218
  Beta  occ. eigenvalues --   -1.40569  -1.40410  -1.40013  -1.39361  -1.39333
  Beta  occ. eigenvalues --   -1.39066  -1.38968  -1.38872  -1.38541  -1.38425
  Beta  occ. eigenvalues --   -1.38214  -1.38208  -1.37901  -1.37478  -1.34266
  Beta  occ. eigenvalues --   -1.32922  -1.28131  -1.27556  -1.26419  -1.25519
  Beta  occ. eigenvalues --   -1.22507  -1.22136  -1.03550  -1.01975  -1.01556
  Beta  occ. eigenvalues --   -0.96918  -0.96528  -0.96257  -0.90608  -0.90102
  Beta  occ. eigenvalues --   -0.89300  -0.88946  -0.88404  -0.87864  -0.84785
  Beta  occ. eigenvalues --   -0.83810  -0.83074  -0.81706  -0.80596  -0.80197
  Beta  occ. eigenvalues --   -0.79929  -0.79508  -0.79027  -0.78646  -0.78191
  Beta  occ. eigenvalues --   -0.77683  -0.77071  -0.76721  -0.76525  -0.75973
  Beta  occ. eigenvalues --   -0.75584  -0.75352  -0.75181  -0.75081  -0.74757
  Beta  occ. eigenvalues --   -0.74670  -0.74124  -0.73978  -0.73873  -0.73550
  Beta  occ. eigenvalues --   -0.73326  -0.73083  -0.72941  -0.72729  -0.72336
  Beta  occ. eigenvalues --   -0.72045  -0.69748  -0.68702  -0.68302  -0.67908
  Beta  occ. eigenvalues --   -0.67167  -0.66520  -0.66367  -0.65348  -0.64599
  Beta  occ. eigenvalues --   -0.64206  -0.63959  -0.63851  -0.63711  -0.63501
  Beta  occ. eigenvalues --   -0.63327  -0.63249  -0.63010  -0.62900  -0.62764
  Beta  occ. eigenvalues --   -0.62614  -0.62233  -0.61978  -0.61853  -0.61821
  Beta  occ. eigenvalues --   -0.61542  -0.61293  -0.61183  -0.60911  -0.60672
  Beta  occ. eigenvalues --   -0.60451  -0.60277  -0.60093  -0.59578  -0.59390
  Beta  occ. eigenvalues --   -0.59274  -0.59045  -0.58932  -0.58731  -0.58506
  Beta  occ. eigenvalues --   -0.58174  -0.58059  -0.57895  -0.57761  -0.57492
  Beta  occ. eigenvalues --   -0.57227  -0.57159  -0.56951  -0.56890  -0.56651
  Beta  occ. eigenvalues --   -0.56435  -0.56126  -0.56008  -0.55925  -0.55808
  Beta  occ. eigenvalues --   -0.55566  -0.55153  -0.54991  -0.54776  -0.54505
  Beta  occ. eigenvalues --   -0.54300  -0.53616  -0.52644  -0.52517  -0.51767
  Beta  occ. eigenvalues --   -0.51579  -0.51180  -0.50367  -0.48963  -0.48768
  Beta virt. eigenvalues --   -0.36778  -0.14595  -0.13885  -0.05731  -0.04094
  Beta virt. eigenvalues --   -0.03592  -0.02108  -0.01675   0.00660   0.01037
  Beta virt. eigenvalues --    0.04214   0.04446   0.05861   0.07815   0.07891

 Mulliken charges and spin densities:
               1          2
     1  O   -0.321791   0.267457
     2  C    0.923732  -0.044575
     3  N   -0.664672   0.032457
     4  C    0.728941  -0.004536
     5  F   -0.234449   0.008430
     6  F   -0.220328   0.017569
     7  C    0.456963   0.000459
     8  F   -0.243096   0.000087
     9  O   -0.512923   0.002134
    10  C    1.005593   0.000194
    11  F   -0.243133   0.000142
    12  F   -0.225667  -0.000009
    13  F   -0.231956   0.000281
    14  C    0.815112  -0.000295
    15  F   -0.256070   0.000052
    16  F   -0.234547   0.000179
    17  F   -0.227593   0.001560
    18  C    0.952073  -0.070377
    19  O   -0.279378   0.471241
    20  N   -0.657781   0.045287
    21  C    0.745821  -0.005222
    22  F   -0.226052   0.014567
    23  F   -0.229708   0.005015
    24  C    0.443039   0.000669
    25  F   -0.242155   0.005063
    26  O   -0.528629   0.001308
    27  C    1.006672  -0.000116
    28  F   -0.230226   0.000004
    29  F   -0.233076   0.000047
    30  F   -0.231252   0.000012
    31  C    0.829276   0.000413
    32  F   -0.237506   0.000155
    33  F   -0.234798   0.000052
    34  F   -0.244121   0.000149
    35  C    0.894462  -0.044345
    36  O   -0.326345   0.258045
    37  N   -0.650381   0.022325
    38  C    0.742813  -0.003290
    39  F   -0.225868   0.007319
    40  F   -0.239475   0.006921
    41  C    0.444333   0.000005
    42  F   -0.249134   0.002109
    43  O   -0.501785   0.000085
    44  C    1.003536  -0.000016
    45  F   -0.238694   0.000033
    46  F   -0.238946   0.000006
    47  F   -0.227455  -0.000005
    48  C    0.820752  -0.000343
    49  F   -0.224439   0.000835
    50  F   -0.236909   0.000061
    51  F   -0.262780   0.000404
 Sum of Mulliken charges =   1.00000   1.00000

 Dipole moment (field-independent basis, Debye):
    X=              0.2106    Y=             -1.0367    Z=             -1.7449  Tot=              2.0405
 Quadrupole moment (field-independent basis, Debye-Ang):
   XX=           -245.6734   YY=           -247.2311   ZZ=           -253.1566
   XY=              0.1686   XZ=              0.5945   YZ=              5.7936

 Normal termination of Gaussian 09 at Tue Mar  5 12:15:30 2024.
