 Gaussian 09, Revision D.01,
 Gaussian 09:  ES64L-G09RevD.01 24-Apr-2013

 ----------------------------------------------------------------------
 #p CAM-B3LYP/6-31G(d,p) SCRF=(PCM,Solvent=Generic,Read) NoSymm out=wfn
 ----------------------------------------------------------------------

 ------------------
 Title A687474390_0
 ------------------
 Symbolic Z-matrix:
 Charge =  0 Multiplicity = 1

                          Input orientation:
 ---------------------------------------------------------------------
 Center     Atomic      Atomic             Coordinates (Angstroms)
 Number     Number       Type             X           Y           Z
 ---------------------------------------------------------------------
      1          6           0       -3.709876   -1.928983   -3.008990
      2          6           0       -2.672065   -1.197869   -2.173452
      3          6           0       -2.369658   -1.948995   -0.874004
      4          7           0       -1.367434   -1.253632   -0.065658
      5          6           0       -1.798587   -0.252497    0.779930
      6          8           0       -2.990244    0.037402    0.896400
      7          7           0       -0.809353    0.429270    1.458277
      8          6           0       -1.207568    1.548801    2.312602
      9          6           0       -1.318571    2.853862    1.520150
     10          6           0       -1.729667    4.012904    2.413073
     11          6           0        0.535844    0.203389    1.261838
     12          8           0        1.389130    0.955557    1.729341
     13          7           0        0.874000   -0.878387    0.490750
     14          6           0        2.290925   -1.144297    0.301325
     15          9           0        2.849070   -1.159671    1.553137
     16          9           0        2.481937   -2.430746   -0.118902
     17          6           0        3.134263   -0.198902   -0.609137
     18          9           0        3.135096    1.081750   -0.137685
     19          8           0        4.516909   -0.558236   -0.782635
     20          6           0        5.220554   -0.694119    0.422829
     21          9           0        6.535508   -0.559324    0.163136
     22          9           0        5.011337   -1.924918    0.919676
     23          9           0        4.861880    0.236581    1.318890
     24          6           0        2.505154   -0.172403   -1.997333
     25          9           0        3.192650    0.656726   -2.826037
     26          9           0        2.496752   -1.384324   -2.589209
     27          9           0        1.233696    0.293967   -1.969343
     28          6           0       -0.036418   -1.509550   -0.314362
     29          8           0        0.314695   -2.232089   -1.245800
     30          1           0       -4.652274   -2.031875   -2.461650
     31          1           0       -3.359397   -2.929411   -3.282110
     32          1           0       -3.911631   -1.376113   -3.931760
     33          1           0       -1.754603   -1.077389   -2.761384
     34          1           0       -3.035340   -0.188195   -1.948781
     35          1           0       -3.288971   -2.064286   -0.287402
     36          1           0       -2.009395   -2.959366   -1.102297
     37          1           0       -0.475169    1.664205    3.120639
     38          1           0       -2.169037    1.317442    2.786459
     39          1           0       -2.051491    2.742366    0.712475
     40          1           0       -0.359341    3.087492    1.043475
     41          1           0       -1.803287    4.934810    1.827802
     42          1           0       -2.704006    3.825297    2.875407
     43          1           0       -0.996019    4.173757    3.209424
 ---------------------------------------------------------------------

 SCF Done:  E(RCAM-B3LYP) =  -1866.98710799     A.U. after   13 cycles

 Alpha  occ. eigenvalues --  -24.84016 -24.83251 -24.83051 -24.82876 -24.82685
 Alpha  occ. eigenvalues --  -24.82598 -24.82513 -24.82452 -24.81856 -19.32665
 Alpha  occ. eigenvalues --  -19.23092 -19.22878 -19.22595 -14.52272 -14.49431
 Alpha  occ. eigenvalues --  -14.49395 -10.59125 -10.55148 -10.53150 -10.48721
 Alpha  occ. eigenvalues --  -10.44908 -10.44842 -10.43777 -10.30943 -10.30932
 Alpha  occ. eigenvalues --  -10.26206 -10.26162 -10.25030 -10.25010  -1.42649
 Alpha  occ. eigenvalues --   -1.41677  -1.38508  -1.35279  -1.33040  -1.32931
 Alpha  occ. eigenvalues --   -1.32616  -1.31838  -1.31031  -1.21666  -1.20044
 Alpha  occ. eigenvalues --   -1.16629  -1.16302  -1.08648  -1.06375  -1.04840
 Alpha  occ. eigenvalues --   -0.93300  -0.88857  -0.87462  -0.84576  -0.80969
 Alpha  occ. eigenvalues --   -0.80536  -0.80349  -0.78366  -0.75045  -0.75014
 Alpha  occ. eigenvalues --   -0.72743  -0.72455  -0.71587  -0.70208  -0.69336
 Alpha  occ. eigenvalues --   -0.68891  -0.68017  -0.67638  -0.67514  -0.67233
 Alpha  occ. eigenvalues --   -0.65410  -0.64042  -0.61449  -0.59895  -0.58972
 Alpha  occ. eigenvalues --   -0.56955  -0.56579  -0.56297  -0.56076  -0.55935
 Alpha  occ. eigenvalues --   -0.55295  -0.54877  -0.54561  -0.54341  -0.54124
 Alpha  occ. eigenvalues --   -0.53617  -0.53487  -0.52836  -0.52669  -0.52376
 Alpha  occ. eigenvalues --   -0.51929  -0.51764  -0.51351  -0.51081  -0.50564
 Alpha  occ. eigenvalues --   -0.50253  -0.49934  -0.49409  -0.48757  -0.48563
 Alpha  occ. eigenvalues --   -0.48284  -0.47800  -0.45742  -0.45560  -0.45473
 Alpha  occ. eigenvalues --   -0.44344  -0.43717  -0.43679  -0.42008  -0.41862
 Alpha  occ. eigenvalues --   -0.40159  -0.39883  -0.38970  -0.38646  -0.37672
 Alpha  occ. eigenvalues --   -0.35643  -0.34963  -0.34601
 Alpha virt. eigenvalues --    0.01729   0.02499   0.06460   0.07955   0.11789
 Alpha virt. eigenvalues --    0.13397   0.14662   0.15998   0.16368   0.16917
 Alpha virt. eigenvalues --    0.17840   0.18396   0.19105   0.19199   0.20061

 Mulliken charges:
               1
     1  C   -0.328230
     2  C   -0.187432
     3  C   -0.049576
     4  N   -0.574301
     5  C    0.825553
     6  O   -0.527174
     7  N   -0.575454
     8  C   -0.050457
     9  C   -0.186896
    10  C   -0.328209
    11  C    0.827477
    12  O   -0.509339
    13  N   -0.630531
    14  C    0.760954
    15  F   -0.270291
    16  F   -0.249942
    17  C    0.435288
    18  F   -0.254306
    19  O   -0.517687
    20  C    0.998875
    21  F   -0.242588
    22  F   -0.245416
    23  F   -0.240716
    24  C    0.807599
    25  F   -0.255103
    26  F   -0.235300
    27  F   -0.253198
    28  C    0.823732
    29  O   -0.513106
    30  H    0.113119
    31  H    0.113963
    32  H    0.114831
    33  H    0.118842
    34  H    0.116458
    35  H    0.148175
    36  H    0.146804
    37  H    0.147360
    38  H    0.148561
    39  H    0.116770
    40  H    0.118464
    41  H    0.114989
    42  H    0.113412
    43  H    0.114025
 Sum of Mulliken charges =   0.00000

 Dipole moment (field-independent basis, Debye):
    X=             -3.1620    Y=              0.5091    Z=              0.7386  Tot=              3.2868
 Quadrupole moment (field-independent basis, Debye-Ang):
   XX=           -171.3294   YY=           -159.4362   ZZ=           -159.7349
   XY=              2.9309   XZ=              1.9033   YZ=             -1.4393

 Normal termination of Gaussian 09 at Sun Mar  3 18:05:41 2024.
