 Gaussian 09, Revision D.01,
 Gaussian 09:  ES64L-G09RevD.01 24-Apr-2013

 ----------------------------------------------------------------------
 #p CAM-B3LYP/6-31G(d,p) SCRF=(PCM,Solvent=Generic,Read) NoSymm out=wfn
 ----------------------------------------------------------------------

 -------------------
 Title A687474390_p1
 -------------------
 Symbolic Z-matrix:
 Charge =  1 Multiplicity = 2

                          Input orientation:
 ---------------------------------------------------------------------
 Center     Atomic      Atomic             Coordinates (Angstroms)
 Number     Number       Type             X           Y           Z
 ---------------------------------------------------------------------
      1          6           0       -3.709876   -1.928983   -3.008990
      2          6           0       -2.672065   -1.197869   -2.173452
      3          6           0       -2.369658   -1.948995   -0.874004
      4          7           0       -1.367434   -1.253632   -0.065658
      5          6           0       -1.798587   -0.252497    0.779930
      6          8           0       -2.990244    0.037402    0.896400
      7          7           0       -0.809353    0.429270    1.458277
      8          6           0       -1.207568    1.548801    2.312602
      9          6           0       -1.318571    2.853862    1.520150
     10          6           0       -1.729667    4.012904    2.413073
     11          6           0        0.535844    0.203389    1.261838
     12          8           0        1.389130    0.955557    1.729341
     13          7           0        0.874000   -0.878387    0.490750
     14          6           0        2.290925   -1.144297    0.301325
     15          9           0        2.849070   -1.159671    1.553137
     16          9           0        2.481937   -2.430746   -0.118902
     17          6           0        3.134263   -0.198902   -0.609137
     18          9           0        3.135096    1.081750   -0.137685
     19          8           0        4.516909   -0.558236   -0.782635
     20          6           0        5.220554   -0.694119    0.422829
     21          9           0        6.535508   -0.559324    0.163136
     22          9           0        5.011337   -1.924918    0.919676
     23          9           0        4.861880    0.236581    1.318890
     24          6           0        2.505154   -0.172403   -1.997333
     25          9           0        3.192650    0.656726   -2.826037
     26          9           0        2.496752   -1.384324   -2.589209
     27          9           0        1.233696    0.293967   -1.969343
     28          6           0       -0.036418   -1.509550   -0.314362
     29          8           0        0.314695   -2.232089   -1.245800
     30          1           0       -4.652274   -2.031875   -2.461650
     31          1           0       -3.359397   -2.929411   -3.282110
     32          1           0       -3.911631   -1.376113   -3.931760
     33          1           0       -1.754603   -1.077389   -2.761384
     34          1           0       -3.035340   -0.188195   -1.948781
     35          1           0       -3.288971   -2.064286   -0.287402
     36          1           0       -2.009395   -2.959366   -1.102297
     37          1           0       -0.475169    1.664205    3.120639
     38          1           0       -2.169037    1.317442    2.786459
     39          1           0       -2.051491    2.742366    0.712475
     40          1           0       -0.359341    3.087492    1.043475
     41          1           0       -1.803287    4.934810    1.827802
     42          1           0       -2.704006    3.825297    2.875407
     43          1           0       -0.996019    4.173757    3.209424
 ---------------------------------------------------------------------

 SCF Done:  E(UCAM-B3LYP) =  -1866.67142710     A.U. after   63 cycles

 Alpha  occ. eigenvalues --  -24.87591 -24.86975 -24.86001 -24.85943 -24.85629
 Alpha  occ. eigenvalues --  -24.85366 -24.85131 -24.84849 -24.84766 -19.35310
 Alpha  occ. eigenvalues --  -19.34653 -19.31093 -19.30387 -14.64608 -14.59601
 Alpha  occ. eigenvalues --  -14.59199 -10.61248 -10.58250 -10.57689 -10.54019
 Alpha  occ. eigenvalues --  -10.52102 -10.52090 -10.52027 -10.39272 -10.36651
 Alpha  occ. eigenvalues --  -10.33037 -10.30807 -10.29237 -10.28022  -1.45110
 Alpha  occ. eigenvalues --   -1.44543  -1.42609  -1.38403  -1.36287  -1.35360
 Alpha  occ. eigenvalues --   -1.35136  -1.34587  -1.34370  -1.31029  -1.25906
 Alpha  occ. eigenvalues --   -1.24500  -1.22660  -1.17717  -1.15470  -1.14066
 Alpha  occ. eigenvalues --   -0.97452  -0.95748  -0.93526  -0.90471  -0.88035
 Alpha  occ. eigenvalues --   -0.87318  -0.84213  -0.83085  -0.81600  -0.81083
 Alpha  occ. eigenvalues --   -0.79244  -0.76476  -0.74828  -0.74694  -0.73247
 Alpha  occ. eigenvalues --   -0.72642  -0.72297  -0.71451  -0.70961  -0.70412
 Alpha  occ. eigenvalues --   -0.69742  -0.68541  -0.67962  -0.66782  -0.64238
 Alpha  occ. eigenvalues --   -0.63732  -0.62709  -0.61957  -0.61579  -0.61257
 Alpha  occ. eigenvalues --   -0.60552  -0.59831  -0.59393  -0.59143  -0.58925
 Alpha  occ. eigenvalues --   -0.58386  -0.57766  -0.57302  -0.57124  -0.56620
 Alpha  occ. eigenvalues --   -0.55785  -0.55345  -0.54895  -0.54741  -0.54455
 Alpha  occ. eigenvalues --   -0.53687  -0.53244  -0.53195  -0.53080  -0.52311
 Alpha  occ. eigenvalues --   -0.51653  -0.51466  -0.51269  -0.50377  -0.49995
 Alpha  occ. eigenvalues --   -0.49353  -0.48595  -0.47850  -0.47740  -0.47060
 Alpha  occ. eigenvalues --   -0.46187  -0.45968  -0.45472  -0.45164  -0.44839
 Alpha  occ. eigenvalues --   -0.43448  -0.42784  -0.42677
 Alpha virt. eigenvalues --   -0.06674  -0.05465   0.02289   0.03027   0.04784
 Alpha virt. eigenvalues --    0.07893   0.10466   0.10709   0.11065   0.12025
 Alpha virt. eigenvalues --    0.12391   0.14159   0.14439   0.14884   0.15721

  Beta  occ. eigenvalues --  -24.87590 -24.86965 -24.86000 -24.85941 -24.85627
  Beta  occ. eigenvalues --  -24.85366 -24.85131 -24.84849 -24.84766 -19.35311
  Beta  occ. eigenvalues --  -19.33987 -19.30830 -19.30450 -14.63546 -14.59251
  Beta  occ. eigenvalues --  -14.59116 -10.61248 -10.58250 -10.57688 -10.54231
  Beta  occ. eigenvalues --  -10.52185 -10.52121 -10.52104 -10.39231 -10.36636
  Beta  occ. eigenvalues --  -10.32883 -10.30737 -10.29219 -10.28014  -1.45108
  Beta  occ. eigenvalues --   -1.44542  -1.42600  -1.38400  -1.36284  -1.35346
  Beta  occ. eigenvalues --   -1.35135  -1.34585  -1.34369  -1.30237  -1.25115
  Beta  occ. eigenvalues --   -1.24114  -1.22661  -1.16688  -1.14631  -1.13225
  Beta  occ. eigenvalues --   -0.97343  -0.95358  -0.93215  -0.90344  -0.87827
  Beta  occ. eigenvalues --   -0.87045  -0.84060  -0.83067  -0.81435  -0.80687
  Beta  occ. eigenvalues --   -0.79169  -0.76403  -0.74787  -0.73964  -0.73163
  Beta  occ. eigenvalues --   -0.72447  -0.71956  -0.71438  -0.70949  -0.70325
  Beta  occ. eigenvalues --   -0.69080  -0.68094  -0.67846  -0.66121  -0.63560
  Beta  occ. eigenvalues --   -0.63145  -0.62448  -0.61252  -0.60842  -0.60418
  Beta  occ. eigenvalues --   -0.60205  -0.59773  -0.59124  -0.58963  -0.58667
  Beta  occ. eigenvalues --   -0.58086  -0.57711  -0.57179  -0.57092  -0.56520
  Beta  occ. eigenvalues --   -0.55747  -0.55070  -0.54725  -0.54506  -0.53968
  Beta  occ. eigenvalues --   -0.53359  -0.53167  -0.53081  -0.52610  -0.52289
  Beta  occ. eigenvalues --   -0.51521  -0.51388  -0.51232  -0.49899  -0.49359
  Beta  occ. eigenvalues --   -0.48466  -0.48206  -0.47371  -0.46666  -0.46556
  Beta  occ. eigenvalues --   -0.45750  -0.45374  -0.44903  -0.44175  -0.43323
  Beta  occ. eigenvalues --   -0.42377  -0.40376
  Beta virt. eigenvalues --   -0.28421  -0.05821  -0.04528   0.02315   0.03650
  Beta virt. eigenvalues --    0.05286   0.08229   0.10581   0.10878   0.11398
  Beta virt. eigenvalues --    0.12087   0.12454   0.14254   0.14527   0.14977

 Mulliken charges and spin densities:
               1          2
     1  C   -0.332382   0.010883
     2  C   -0.209129   0.079945
     3  C   -0.094187   0.014643
     4  N   -0.462088   0.481540
     5  C    0.855844  -0.057563
     6  O   -0.456040  -0.020084
     7  N   -0.531105   0.221199
     8  C   -0.079677   0.003540
     9  C   -0.200564   0.034906
    10  C   -0.329686   0.005338
    11  C    0.867362  -0.053832
    12  O   -0.427220   0.103718
    13  N   -0.635081  -0.014405
    14  C    0.761199  -0.000678
    15  F   -0.256561   0.000494
    16  F   -0.239441   0.002117
    17  C    0.441652  -0.000813
    18  F   -0.249037   0.000229
    19  O   -0.507240  -0.000131
    20  C    1.003367   0.000006
    21  F   -0.236781  -0.000002
    22  F   -0.243566   0.000005
    23  F   -0.239761  -0.000002
    24  C    0.808773  -0.000085
    25  F   -0.245160   0.000007
    26  F   -0.231907   0.000223
    27  F   -0.257681   0.000414
    28  C    0.871522  -0.120895
    29  O   -0.377765   0.261576
    30  H    0.138933   0.000449
    31  H    0.138407  -0.000393
    32  H    0.152028   0.009993
    33  H    0.158257  -0.000581
    34  H    0.159210  -0.002691
    35  H    0.219243   0.016081
    36  H    0.213231   0.010827
    37  H    0.189951   0.004229
    38  H    0.190165   0.007021
    39  H    0.137538  -0.001261
    40  H    0.141467   0.000224
    41  H    0.136594   0.003829
    42  H    0.128131   0.000245
    43  H    0.129187  -0.000263
 Sum of Mulliken charges =   1.00000   1.00000

 Dipole moment (field-independent basis, Debye):
    X=             -7.6879    Y=             -2.3478    Z=              0.8093  Tot=              8.0790
 Quadrupole moment (field-independent basis, Debye-Ang):
   XX=           -145.0872   YY=           -139.6766   ZZ=           -142.4551
   XY=              6.9196   XZ=              5.7042   YZ=              8.4403

 Normal termination of Gaussian 09 at Sun Mar  3 18:08:15 2024.
