 Gaussian 09, Revision D.01,
 Gaussian 09:  ES64L-G09RevD.01 24-Apr-2013

 ----------------------------------------------------------------------
 #p CAM-B3LYP/6-31G(d,p) SCRF=(PCM,Solvent=Generic,Read) NoSymm out=wfn
 ----------------------------------------------------------------------

 -------------
 Title OA0_neu
 -------------
 Symbolic Z-matrix:
 Charge =  0 Multiplicity = 1

                          Input orientation:
 ---------------------------------------------------------------------
 Center     Atomic      Atomic             Coordinates (Angstroms)
 Number     Number       Type             X           Y           Z
 ---------------------------------------------------------------------
      1          9           0        4.247407    2.784992    2.206294
      2          6           0        4.339375    2.148187    1.023774
      3          9           0        4.475513    3.091395    0.069480
      4          6           0        5.459096    1.131240    0.977994
      5          9           0        6.681955    1.635331    0.755185
      6          9           0        5.534580    0.484478    2.172997
      7          6           0        4.980754    0.170754   -0.070328
      8          9           0        5.536211   -1.056493    0.128239
      9          6           0        5.272032    0.596262   -1.499660
     10          9           0        4.595926    1.736462   -1.802541
     11          6           0        6.769254    0.763799   -1.757515
     12          8           0        7.452997   -0.398320   -1.824522
     13          8           0        7.363835    1.822729   -1.894240
     14          9           0        4.755472   -0.352798   -2.342625
     15          6           0        3.473547    0.178118    0.207569
     16          9           0        2.783087    0.069493   -0.963719
     17          6           0        3.021907   -0.986152    1.109388
     18          9           0        3.361577   -2.168808    0.506642
     19          6           0        1.502962   -0.916318    1.324916
     20          7           0        0.758175   -1.716424    0.471454
     21          6           0       -0.691090   -1.718901    0.485354
     22          6           0       -1.252749   -0.585714   -0.371362
     23          6           0       -2.778484   -0.616760   -0.498719
     24          6           0       -3.499544   -0.310507    0.816644
     25          6           0       -5.026676   -0.342592    0.694643
     26          6           0       -5.593387    0.778119   -0.179641
     27          6           0       -7.122708    0.774397   -0.160717
     28          6           0       -7.693378    1.878821   -1.035899
     29          8           0        0.982105   -0.195958    2.174940
     30          9           0        3.695885   -0.964843    2.289582
     31          8           0        3.120348    1.461992    0.759804
     32          1           0        8.381885   -0.140804   -2.013059
     33          1           0        1.240095   -2.288361   -0.215529
     34          1           0       -1.013438   -2.691038    0.097705
     35          1           0       -1.028952   -1.633299    1.522900
     36          1           0       -0.933955    0.384278    0.029902
     37          1           0       -0.821135   -0.655864   -1.378435
     38          1           0       -3.096773   -1.595030   -0.878615
     39          1           0       -3.062372    0.124752   -1.253783
     40          1           0       -3.212985   -1.050623    1.572031
     41          1           0       -3.181534    0.668286    1.195305
     42          1           0       -5.449941   -0.256256    1.703129
     43          1           0       -5.344074   -1.316110    0.301906
     44          1           0       -5.248850    0.660359   -1.212919
     45          1           0       -5.224791    1.746887    0.178366
     46          1           0       -7.483232    0.907679    0.865885
     47          1           0       -7.497064   -0.193689   -0.513288
     48          1           0       -7.379754    1.755346   -2.077404
     49          1           0       -7.361834    2.863543   -0.691464
     50          1           0       -8.787280    1.858966   -1.006045
 ---------------------------------------------------------------------

 SCF Done:  E(RCAM-B3LYP) =  -1974.53053039     A.U. after   13 cycles

 Alpha  occ. eigenvalues --  -24.84032 -24.82855 -24.82660 -24.82606 -24.82536
 Alpha  occ. eigenvalues --  -24.82232 -24.82064 -24.81986 -24.81862 -24.81391
 Alpha  occ. eigenvalues --  -19.31725 -19.30333 -19.25315 -19.21442 -14.45068
 Alpha  occ. eigenvalues --  -10.52564 -10.49324 -10.48870 -10.47326 -10.47000
 Alpha  occ. eigenvalues --  -10.44421 -10.42716 -10.39472 -10.29947 -10.25504
 Alpha  occ. eigenvalues --  -10.25145 -10.24656 -10.24559 -10.24515 -10.24392
 Alpha  occ. eigenvalues --  -10.23954  -1.40552  -1.38311  -1.38144  -1.37240
 Alpha  occ. eigenvalues --   -1.34917  -1.34689  -1.32729  -1.31740  -1.30961
 Alpha  occ. eigenvalues --   -1.30480  -1.22215  -1.20016  -1.13408  -1.12296
 Alpha  occ. eigenvalues --   -1.01509  -0.97568  -0.90506  -0.89364  -0.88104
 Alpha  occ. eigenvalues --   -0.86908  -0.83956  -0.82064  -0.78378  -0.77656
 Alpha  occ. eigenvalues --   -0.76049  -0.74125  -0.73256  -0.71050  -0.70625
 Alpha  occ. eigenvalues --   -0.69613  -0.68827  -0.68184  -0.67333  -0.66861
 Alpha  occ. eigenvalues --   -0.66075  -0.65908  -0.65352  -0.65200  -0.64493
 Alpha  occ. eigenvalues --   -0.63800  -0.63528  -0.63356  -0.61506  -0.58364
 Alpha  occ. eigenvalues --   -0.57693  -0.57016  -0.56142  -0.56047  -0.55780
 Alpha  occ. eigenvalues --   -0.55486  -0.54403  -0.54096  -0.54065  -0.53837
 Alpha  occ. eigenvalues --   -0.53321  -0.52849  -0.52498  -0.52322  -0.52069
 Alpha  occ. eigenvalues --   -0.51814  -0.51709  -0.51008  -0.50917  -0.50596
 Alpha  occ. eigenvalues --   -0.50168  -0.49916  -0.49537  -0.48962  -0.48453
 Alpha  occ. eigenvalues --   -0.48380  -0.47957  -0.47258  -0.46539  -0.46347
 Alpha  occ. eigenvalues --   -0.45241  -0.44994  -0.43558  -0.43361  -0.43109
 Alpha  occ. eigenvalues --   -0.42113  -0.41089  -0.41012  -0.40367  -0.39658
 Alpha  occ. eigenvalues --   -0.38545  -0.38095  -0.37794  -0.36588  -0.36121
 Alpha  occ. eigenvalues --   -0.34112  -0.32206
 Alpha virt. eigenvalues --   -0.00424   0.02934   0.05103   0.07796   0.10900
 Alpha virt. eigenvalues --    0.11630   0.13170   0.13796   0.14355   0.14936
 Alpha virt. eigenvalues --    0.15965   0.16162   0.16923   0.17557   0.18251

 Mulliken charges:
               1
     1  F   -0.241633
     2  C    0.755961
     3  F   -0.240203
     4  C    0.544791
     5  F   -0.246571
     6  F   -0.260481
     7  C    0.139042
     8  F   -0.281859
     9  C    0.626401
    10  F   -0.263389
    11  C    0.526867
    12  O   -0.472555
    13  O   -0.443839
    14  F   -0.279081
    15  C    0.478567
    16  F   -0.283693
    17  C    0.584514
    18  F   -0.288202
    19  C    0.530659
    20  N   -0.540653
    21  C   -0.046405
    22  C   -0.179088
    23  C   -0.184275
    24  C   -0.180856
    25  C   -0.180957
    26  C   -0.167312
    27  C   -0.176025
    28  C   -0.319106
    29  O   -0.506918
    30  F   -0.268105
    31  O   -0.483800
    32  H    0.362007
    33  H    0.286328
    34  H    0.114341
    35  H    0.143716
    36  H    0.120062
    37  H    0.092777
    38  H    0.088419
    39  H    0.100969
    40  H    0.090747
    41  H    0.098966
    42  H    0.090012
    43  H    0.087676
    44  H    0.092590
    45  H    0.091273
    46  H    0.093590
    47  H    0.092088
    48  H    0.101244
    49  H    0.102808
    50  H    0.098588
 Sum of Mulliken charges =   0.00000

 Dipole moment (field-independent basis, Debye):
    X=              0.0654    Y=             -3.5132    Z=             -2.8264  Tot=              4.5095
 Quadrupole moment (field-independent basis, Debye-Ang):
   XX=           -153.1336   YY=           -176.9221   ZZ=           -181.7528
   XY=             -8.8958   XZ=             -7.9304   YZ=              3.6220

 Normal termination of Gaussian 09 at Mon Feb  3 21:42:42 2025.
