 Gaussian 09, Revision D.01,
 Gaussian 09:  ES64L-G09RevD.01 24-Apr-2013

 ----------------------------------------------------------------------
 #p CAM-B3LYP/6-31G(d,p) SCRF=(PCM,Solvent=Generic,Read) NoSymm out=wfn
 ----------------------------------------------------------------------

 --------------------
 Title A1557670720_p1
 --------------------
 Symbolic Z-matrix:
 Charge =  1 Multiplicity = 2

                          Input orientation:
 ---------------------------------------------------------------------
 Center     Atomic      Atomic             Coordinates (Angstroms)
 Number     Number       Type             X           Y           Z
 ---------------------------------------------------------------------
      1          6           0        4.777047    0.587840   -1.771229
      2          6           0        3.276976    0.584914   -2.022416
      3          6           0        2.779536   -0.807594   -2.413757
      4          6           0        1.285542   -0.842092   -2.762755
      5          7           0        0.419649   -0.551532   -1.618379
      6          6           0        0.210788   -1.555790   -0.694997
      7          8           0        0.647255   -2.696231   -0.857949
      8          7           0       -0.506829   -1.199820    0.427987
      9          6           0       -0.686198   -2.203867    1.478956
     10          6           0       -1.945170   -3.043532    1.239187
     11          6           0       -2.234127   -4.035978    2.366437
     12          6           0       -1.181589   -5.125729    2.498674
     13          6           0       -1.115968    0.026344    0.580408
     14          8           0       -1.723044    0.319004    1.609934
     15          7           0       -0.998124    0.908042   -0.460262
     16          6           0       -1.585196    2.231270   -0.321518
     17          9           0       -2.007628    2.627176   -1.567740
     18          9           0       -2.753043    2.153290    0.372603
     19          6           0       -0.673457    3.356344    0.251346
     20          9           0        0.611968    3.148019   -0.205714
     21          8           0       -0.967667    4.667174   -0.262430
     22          6           0       -2.136847    5.247832    0.252818
     23          9           0       -2.413884    6.358501   -0.453450
     24          9           0       -3.171323    4.404746    0.155061
     25          9           0       -1.947549    5.589767    1.535961
     26          6           0       -0.599312    3.248165    1.773762
     27          9           0       -1.807667    3.282468    2.367595
     28          9           0        0.125510    4.274502    2.288497
     29          9           0        0.030487    2.115893    2.161839
     30          6           0       -0.123187    0.711440   -1.500655
     31          8           0        0.173389    1.614824   -2.281804
     32          1           0        5.326050    0.285182   -2.668608
     33          1           0        5.112120    1.591289   -1.490594
     34          1           0        5.039938   -0.097743   -0.959311
     35          1           0        2.768995    0.927729   -1.114341
     36          1           0        3.045644    1.301326   -2.818909
     37          1           0        3.342326   -1.155412   -3.288887
     38          1           0        2.993110   -1.511337   -1.600482
     39          1           0        1.079747   -0.145640   -3.583548
     40          1           0        1.036519   -1.843321   -3.135496
     41          1           0        0.200626   -2.846065    1.511691
     42          1           0       -0.752342   -1.703954    2.452347
     43          1           0       -1.860073   -3.580761    0.286560
     44          1           0       -2.810507   -2.376446    1.137804
     45          1           0       -3.203420   -4.510197    2.171437
     46          1           0       -2.328803   -3.502000    3.319064
     47          1           0       -1.491288   -5.857139    3.252109
     48          1           0       -0.217047   -4.716309    2.812566
     49          1           0       -1.041934   -5.654589    1.550591
 ---------------------------------------------------------------------

 SCF Done:  E(UCAM-B3LYP) =  -1945.25132986     A.U. after   35 cycles

 Alpha  occ. eigenvalues --  -24.86462 -24.86453 -24.86269 -24.85997 -24.85755
 Alpha  occ. eigenvalues --  -24.85670 -24.85392 -24.85273 -24.84823 -19.35612
 Alpha  occ. eigenvalues --  -19.34466 -19.30485 -19.30282 -14.64230 -14.59211
 Alpha  occ. eigenvalues --  -14.58945 -10.61645 -10.57904 -10.57185 -10.53787
 Alpha  occ. eigenvalues --  -10.52194 -10.51907 -10.51669 -10.39254 -10.36455
 Alpha  occ. eigenvalues --  -10.32838 -10.30480 -10.29972 -10.28550 -10.27845
 Alpha  occ. eigenvalues --  -10.26790  -1.45494  -1.44232  -1.42345  -1.38573
 Alpha  occ. eigenvalues --   -1.35977  -1.35682  -1.34931  -1.34845  -1.34350
 Alpha  occ. eigenvalues --   -1.30632  -1.25580  -1.24164  -1.22941  -1.17441
 Alpha  occ. eigenvalues --   -1.15083  -1.13738  -0.97068  -0.95605  -0.93692
 Alpha  occ. eigenvalues --   -0.90170  -0.89207  -0.88489  -0.84768  -0.84299
 Alpha  occ. eigenvalues --   -0.83607  -0.81401  -0.80025  -0.78188  -0.77152
 Alpha  occ. eigenvalues --   -0.76044  -0.74874  -0.73844  -0.72516  -0.72080
 Alpha  occ. eigenvalues --   -0.71065  -0.70879  -0.70782  -0.70134  -0.68544
 Alpha  occ. eigenvalues --   -0.68217  -0.67162  -0.66853  -0.63852  -0.63401
 Alpha  occ. eigenvalues --   -0.62363  -0.61683  -0.60852  -0.60485  -0.60367
 Alpha  occ. eigenvalues --   -0.59630  -0.59373  -0.59089  -0.58263  -0.58137
 Alpha  occ. eigenvalues --   -0.57949  -0.57515  -0.57218  -0.56759  -0.56340
 Alpha  occ. eigenvalues --   -0.55724  -0.55429  -0.54678  -0.54512  -0.54347
 Alpha  occ. eigenvalues --   -0.53967  -0.53623  -0.53043  -0.52631  -0.52037
 Alpha  occ. eigenvalues --   -0.51603  -0.51510  -0.51037  -0.51022  -0.50475
 Alpha  occ. eigenvalues --   -0.50206  -0.49121  -0.48278  -0.47866  -0.47371
 Alpha  occ. eigenvalues --   -0.46897  -0.45833  -0.44939  -0.44497  -0.44352
 Alpha  occ. eigenvalues --   -0.43613  -0.43167  -0.42653  -0.42439  -0.42390
 Alpha  occ. eigenvalues --   -0.41360
 Alpha virt. eigenvalues --   -0.06552  -0.05262   0.01942   0.03018   0.05101
 Alpha virt. eigenvalues --    0.08494   0.09769   0.10456   0.10910   0.12453
 Alpha virt. eigenvalues --    0.12885   0.13464   0.13685   0.14236   0.14818

  Beta  occ. eigenvalues --  -24.86458 -24.86449 -24.86267 -24.85997 -24.85746
  Beta  occ. eigenvalues --  -24.85670 -24.85392 -24.85273 -24.84823 -19.35612
  Beta  occ. eigenvalues --  -19.33799 -19.30336 -19.30238 -14.63209 -14.58996
  Beta  occ. eigenvalues --  -14.58754 -10.61645 -10.57904 -10.57185 -10.53997
  Beta  occ. eigenvalues --  -10.52196 -10.51999 -10.51758 -10.39203 -10.36439
  Beta  occ. eigenvalues --  -10.32686 -10.30414 -10.29952 -10.28538 -10.27812
  Beta  occ. eigenvalues --  -10.26788  -1.45493  -1.44229  -1.42338  -1.38566
  Beta  occ. eigenvalues --   -1.35975  -1.35677  -1.34929  -1.34830  -1.34347
  Beta  occ. eigenvalues --   -1.29867  -1.24805  -1.23807  -1.22940  -1.16406
  Beta  occ. eigenvalues --   -1.14306  -1.12933  -0.96895  -0.95281  -0.93429
  Beta  occ. eigenvalues --   -0.90030  -0.89013  -0.88326  -0.84761  -0.84022
  Beta  occ. eigenvalues --   -0.83357  -0.81170  -0.79817  -0.78053  -0.76842
  Beta  occ. eigenvalues --   -0.76021  -0.74823  -0.73785  -0.72363  -0.72002
  Beta  occ. eigenvalues --   -0.71054  -0.70699  -0.70345  -0.69555  -0.68243
  Beta  occ. eigenvalues --   -0.67603  -0.66960  -0.66416  -0.63225  -0.62892
  Beta  occ. eigenvalues --   -0.61515  -0.60612  -0.60559  -0.60314  -0.60078
  Beta  occ. eigenvalues --   -0.59591  -0.59222  -0.58785  -0.58088  -0.57952
  Beta  occ. eigenvalues --   -0.57730  -0.57462  -0.57125  -0.56627  -0.56218
  Beta  occ. eigenvalues --   -0.55389  -0.55289  -0.54508  -0.54283  -0.53821
  Beta  occ. eigenvalues --   -0.53641  -0.53530  -0.52984  -0.52527  -0.51936
  Beta  occ. eigenvalues --   -0.51501  -0.51425  -0.50987  -0.50580  -0.50070
  Beta  occ. eigenvalues --   -0.49974  -0.48539  -0.47654  -0.46824  -0.46641
  Beta  occ. eigenvalues --   -0.45590  -0.45192  -0.44128  -0.43573  -0.43230
  Beta  occ. eigenvalues --   -0.42992  -0.42518  -0.42303  -0.42078  -0.39755
  Beta virt. eigenvalues --   -0.28284  -0.05742  -0.04301   0.02169   0.03031
  Beta virt. eigenvalues --    0.06024   0.08682   0.09976   0.10671   0.11100
  Beta virt. eigenvalues --    0.12530   0.12978   0.13558   0.13800   0.14351

 Mulliken charges and spin densities:
               1          2
     1  C   -0.325834   0.016375
     2  C   -0.196046   0.009406
     3  C   -0.202948   0.076098
     4  C   -0.116347   0.018294
     5  N   -0.463883   0.464569
     6  C    0.860547  -0.056479
     7  O   -0.458644  -0.016186
     8  N   -0.539547   0.208198
     9  C   -0.082137   0.004231
    10  C   -0.196266   0.032221
    11  C   -0.191539   0.007259
    12  C   -0.328351   0.000948
    13  C    0.869845  -0.051144
    14  O   -0.439634   0.097155
    15  N   -0.632323  -0.014036
    16  C    0.759642  -0.000809
    17  F   -0.263348   0.002029
    18  F   -0.236473   0.000480
    19  C    0.439732  -0.000708
    20  F   -0.272036   0.000753
    21  O   -0.489508  -0.000123
    22  C    0.981351   0.000001
    23  F   -0.233132  -0.000002
    24  F   -0.233562  -0.000001
    25  F   -0.236751  -0.000001
    26  C    0.822099  -0.000088
    27  F   -0.238641   0.000008
    28  F   -0.252470   0.000045
    29  F   -0.246741   0.000788
    30  C    0.889899  -0.121119
    31  O   -0.381510   0.261267
    32  H    0.126929  -0.000513
    33  H    0.131862   0.005226
    34  H    0.121315  -0.000187
    35  H    0.102635  -0.000510
    36  H    0.136312   0.001991
    37  H    0.172299   0.002794
    38  H    0.157318  -0.001338
    39  H    0.216739   0.005665
    40  H    0.227093   0.031282
    41  H    0.184862   0.006251
    42  H    0.189183   0.003990
    43  H    0.135142  -0.001149
    44  H    0.133886  -0.000176
    45  H    0.128242   0.005854
    46  H    0.119526  -0.000307
    47  H    0.123133   0.000867
    48  H    0.110571   0.000903
    49  H    0.117506  -0.000076
 Sum of Mulliken charges =   1.00000   1.00000

 Dipole moment (field-independent basis, Debye):
    X=              2.1806    Y=             -4.8341    Z=             -4.5613  Tot=              6.9949
 Quadrupole moment (field-independent basis, Debye-Ang):
   XX=           -152.8840   YY=           -159.1624   ZZ=           -149.9366
   XY=              4.7962   XZ=            -11.7206   YZ=             -2.4848

 Normal termination of Gaussian 09 at Sun Mar  3 17:37:05 2024.
