 Gaussian 09, Revision D.01,
 Gaussian 09:  ES64L-G09RevD.01 24-Apr-2013

 ----------------------------------------------------------------------
 #p CAM-B3LYP/6-31G(d,p) SCRF=(PCM,Solvent=Generic,Read) NoSymm out=wfn
 ----------------------------------------------------------------------

 -------------------
 Title A1557670720_0
 -------------------
 Symbolic Z-matrix:
 Charge =  0 Multiplicity = 1

                          Input orientation:
 ---------------------------------------------------------------------
 Center     Atomic      Atomic             Coordinates (Angstroms)
 Number     Number       Type             X           Y           Z
 ---------------------------------------------------------------------
      1          6           0        4.777047    0.587840   -1.771229
      2          6           0        3.276976    0.584914   -2.022416
      3          6           0        2.779536   -0.807594   -2.413757
      4          6           0        1.285542   -0.842092   -2.762755
      5          7           0        0.419649   -0.551532   -1.618379
      6          6           0        0.210788   -1.555790   -0.694997
      7          8           0        0.647255   -2.696231   -0.857949
      8          7           0       -0.506829   -1.199820    0.427987
      9          6           0       -0.686198   -2.203867    1.478956
     10          6           0       -1.945170   -3.043532    1.239187
     11          6           0       -2.234127   -4.035978    2.366437
     12          6           0       -1.181589   -5.125729    2.498674
     13          6           0       -1.115968    0.026344    0.580408
     14          8           0       -1.723044    0.319004    1.609934
     15          7           0       -0.998124    0.908042   -0.460262
     16          6           0       -1.585196    2.231270   -0.321518
     17          9           0       -2.007628    2.627176   -1.567740
     18          9           0       -2.753043    2.153290    0.372603
     19          6           0       -0.673457    3.356344    0.251346
     20          9           0        0.611968    3.148019   -0.205714
     21          8           0       -0.967667    4.667174   -0.262430
     22          6           0       -2.136847    5.247832    0.252818
     23          9           0       -2.413884    6.358501   -0.453450
     24          9           0       -3.171323    4.404746    0.155061
     25          9           0       -1.947549    5.589767    1.535961
     26          6           0       -0.599312    3.248165    1.773762
     27          9           0       -1.807667    3.282468    2.367595
     28          9           0        0.125510    4.274502    2.288497
     29          9           0        0.030487    2.115893    2.161839
     30          6           0       -0.123187    0.711440   -1.500655
     31          8           0        0.173389    1.614824   -2.281804
     32          1           0        5.326050    0.285182   -2.668608
     33          1           0        5.112120    1.591289   -1.490594
     34          1           0        5.039938   -0.097743   -0.959311
     35          1           0        2.768995    0.927729   -1.114341
     36          1           0        3.045644    1.301326   -2.818909
     37          1           0        3.342326   -1.155412   -3.288887
     38          1           0        2.993110   -1.511337   -1.600482
     39          1           0        1.079747   -0.145640   -3.583548
     40          1           0        1.036519   -1.843321   -3.135496
     41          1           0        0.200626   -2.846065    1.511691
     42          1           0       -0.752342   -1.703954    2.452347
     43          1           0       -1.860073   -3.580761    0.286560
     44          1           0       -2.810507   -2.376446    1.137804
     45          1           0       -3.203420   -4.510197    2.171437
     46          1           0       -2.328803   -3.502000    3.319064
     47          1           0       -1.491288   -5.857139    3.252109
     48          1           0       -0.217047   -4.716309    2.812566
     49          1           0       -1.041934   -5.654589    1.550591
 ---------------------------------------------------------------------

 SCF Done:  E(RCAM-B3LYP) =  -1945.56505812     A.U. after   13 cycles

 Alpha  occ. eigenvalues --  -24.83891 -24.83514 -24.83475 -24.83446 -24.83113
 Alpha  occ. eigenvalues --  -24.82940 -24.82456 -24.82221 -24.81472 -19.32950
 Alpha  occ. eigenvalues --  -19.22820 -19.22717 -19.22577 -14.52139 -14.49361
 Alpha  occ. eigenvalues --  -14.49356 -10.59559 -10.55139 -10.52707 -10.48822
 Alpha  occ. eigenvalues --  -10.44749 -10.44730 -10.43722 -10.30849 -10.30794
 Alpha  occ. eigenvalues --  -10.26037 -10.26008 -10.25569 -10.25164 -10.24508
 Alpha  occ. eigenvalues --  -10.24346  -1.43382  -1.41627  -1.38293  -1.35130
 Alpha  occ. eigenvalues --   -1.33888  -1.33363  -1.32624  -1.31978  -1.30695
 Alpha  occ. eigenvalues --   -1.21455  -1.20296  -1.16395  -1.16202  -1.08469
 Alpha  occ. eigenvalues --   -1.06227  -1.04711  -0.92780  -0.89317  -0.88339
 Alpha  occ. eigenvalues --   -0.84640  -0.82641  -0.82405  -0.82191  -0.77924
 Alpha  occ. eigenvalues --   -0.77859  -0.75752  -0.74236  -0.73265  -0.72773
 Alpha  occ. eigenvalues --   -0.71404  -0.71139  -0.70741  -0.69941  -0.68636
 Alpha  occ. eigenvalues --   -0.68112  -0.67408  -0.65655  -0.65525  -0.64513
 Alpha  occ. eigenvalues --   -0.63505  -0.61116  -0.59929  -0.58488  -0.57284
 Alpha  occ. eigenvalues --   -0.57051  -0.56835  -0.56330  -0.55758  -0.55240
 Alpha  occ. eigenvalues --   -0.54923  -0.54772  -0.54502  -0.54076  -0.53691
 Alpha  occ. eigenvalues --   -0.53366  -0.53057  -0.52720  -0.52555  -0.52063
 Alpha  occ. eigenvalues --   -0.51606  -0.51430  -0.51265  -0.50593  -0.50364
 Alpha  occ. eigenvalues --   -0.50005  -0.49775  -0.49553  -0.49121  -0.48508
 Alpha  occ. eigenvalues --   -0.48379  -0.48018  -0.47756  -0.47260  -0.46069
 Alpha  occ. eigenvalues --   -0.45124  -0.43924  -0.43379  -0.43245  -0.41168
 Alpha  occ. eigenvalues --   -0.40382  -0.39747  -0.39554  -0.39333  -0.39001
 Alpha  occ. eigenvalues --   -0.38359  -0.38191  -0.37568  -0.35468  -0.34827
 Alpha  occ. eigenvalues --   -0.34320
 Alpha virt. eigenvalues --    0.01640   0.02568   0.06142   0.07169   0.12538
 Alpha virt. eigenvalues --    0.13254   0.14406   0.15250   0.16397   0.16959
 Alpha virt. eigenvalues --    0.17414   0.17925   0.18005   0.18700   0.18870

 Mulliken charges:
               1
     1  C   -0.323206
     2  C   -0.172638
     3  C   -0.182302
     4  C   -0.070155
     5  N   -0.572474
     6  C    0.830330
     7  O   -0.527865
     8  N   -0.580004
     9  C   -0.055965
    10  C   -0.182684
    11  C   -0.187038
    12  C   -0.323255
    13  C    0.832599
    14  O   -0.518591
    15  N   -0.627600
    16  C    0.759179
    17  F   -0.274783
    18  F   -0.249679
    19  C    0.435218
    20  F   -0.271590
    21  O   -0.497141
    22  C    0.976602
    23  F   -0.238225
    24  F   -0.234078
    25  F   -0.240798
    26  C    0.817750
    27  F   -0.244156
    28  F   -0.260774
    29  F   -0.244602
    30  C    0.844824
    31  O   -0.516246
    32  H    0.106137
    33  H    0.105621
    34  H    0.104317
    35  H    0.092645
    36  H    0.107615
    37  H    0.112343
    38  H    0.114862
    39  H    0.153100
    40  H    0.145408
    41  H    0.148462
    42  H    0.148793
    43  H    0.113922
    44  H    0.111001
    45  H    0.105051
    46  H    0.104077
    47  H    0.107457
    48  H    0.107425
    49  H    0.111109
 Sum of Mulliken charges =   0.00000

 Dipole moment (field-independent basis, Debye):
    X=              0.7676    Y=             -2.7928    Z=             -0.1240  Tot=              2.8991
 Quadrupole moment (field-independent basis, Debye-Ang):
   XX=           -173.0853   YY=           -182.0737   ZZ=           -173.7719
   XY=              4.6733   XZ=             -0.0538   YZ=             -0.0991

 Normal termination of Gaussian 09 at Sun Mar  3 17:35:25 2024.
