 Gaussian 09, Revision D.01,
 Gaussian 09:  ES64L-G09RevD.01 24-Apr-2013

 ----------------------------------------------------------------------
 #p CAM-B3LYP/6-31G(d,p) SCRF=(PCM,Solvent=Generic,Read) NoSymm out=wfn
 ----------------------------------------------------------------------

 ------------------
 Title A156206680_0
 ------------------
 Symbolic Z-matrix:
 Charge =  0 Multiplicity = 1

                          Input orientation:
 ---------------------------------------------------------------------
 Center     Atomic      Atomic             Coordinates (Angstroms)
 Number     Number       Type             X           Y           Z
 ---------------------------------------------------------------------
      1          6           0       -2.360909    1.108099    0.934531
      2          6           0       -1.205253    0.602586    0.469375
      3          7           0       -0.284106    1.380184   -0.235509
      4          6           0       -0.546276    2.738350   -0.765203
      5          9           0       -1.881998    2.995868   -0.806119
      6          9           0       -0.212942    2.734320   -2.094577
      7          6           0        0.208511    3.913998   -0.064202
      8          9           0        1.441370    3.470186    0.361944
      9          8           0        0.553079    5.008142   -0.926012
     10          6           0       -0.530992    5.799935   -1.333941
     11          9           0       -1.505752    5.041639   -1.851000
     12          9           0       -1.002258    6.495578   -0.288280
     13          9           0       -0.105395    6.665776   -2.270795
     14          6           0       -0.563524    4.277515    1.203366
     15          9           0       -0.594586    3.243369    2.077913
     16          9           0        0.015275    5.316465    1.849362
     17          9           0       -1.847453    4.622084    0.964174
     18          6           0        0.989117    0.898066   -0.543964
     19          8           0        1.754209    1.532267   -1.265913
     20          7           0        1.328293   -0.317004   -0.005083
     21          6           0        2.667497   -0.815253   -0.293891
     22          9           0        2.674809   -1.268030   -1.579653
     23          9           0        3.549402    0.235831   -0.276345
     24          6           0        3.325456   -1.884947    0.640997
     25          9           0        2.718252   -3.098068    0.592992
     26          8           0        4.721221   -2.143654    0.397719
     27          6           0        4.986029   -2.533722   -0.924612
     28          9           0        6.161191   -3.191232   -0.944921
     29          9           0        5.096918   -1.438976   -1.694618
     30          9           0        4.029563   -3.341552   -1.407357
     31          6           0        3.210827   -1.337157    2.063302
     32          9           0        3.784013   -2.169317    2.967967
     33          9           0        1.922886   -1.170398    2.453397
     34          9           0        3.814471   -0.133220    2.200319
     35          6           0        0.330039   -1.236012    0.164120
     36          8           0        0.511547   -2.425188   -0.068439
     37          7           0       -0.874258   -0.742405    0.638588
     38          6           0       -1.821472   -1.781679    1.102784
     39          9           0       -2.559946   -1.287579    2.138878
     40          9           0       -1.120139   -2.791959    1.693246
     41          6           0       -2.757088   -2.341888    0.001472
     42          9           0       -3.609098   -1.335563   -0.375881
     43          8           0       -2.004912   -2.664089   -1.173064
     44          6           0       -2.738361   -3.399414   -2.116884
     45          9           0       -3.962930   -2.873357   -2.284874
     46          9           0       -2.833029   -4.674251   -1.710529
     47          9           0       -2.084694   -3.365840   -3.292331
     48          6           0       -3.549202   -3.470806    0.677477
     49          9           0       -2.765870   -4.528447    0.986228
     50          9           0       -4.535001   -3.936667   -0.126926
     51          9           0       -4.155857   -3.068910    1.816648
     52          1           0       -2.662651    2.145241    0.863371
     53          1           0       -3.118022    0.541085    1.460752
 ---------------------------------------------------------------------

 SCF Done:  E(RCAM-B3LYP) =  -3845.84324020     A.U. after   13 cycles

 Alpha  occ. eigenvalues --  -24.84590 -24.84550 -24.84431 -24.84396 -24.84331
 Alpha  occ. eigenvalues --  -24.84255 -24.84135 -24.84007 -24.84004 -24.83910
 Alpha  occ. eigenvalues --  -24.83897 -24.83776 -24.83717 -24.83609 -24.83575
 Alpha  occ. eigenvalues --  -24.83560 -24.83447 -24.83437 -24.83338 -24.83170
 Alpha  occ. eigenvalues --  -24.83116 -24.83035 -24.82736 -24.82621 -24.82372
 Alpha  occ. eigenvalues --  -24.82310 -24.82041 -19.33651 -19.33571 -19.32832
 Alpha  occ. eigenvalues --  -19.24629 -19.23967 -14.52826 -14.52762 -14.52620
 Alpha  occ. eigenvalues --  -10.60184 -10.59981 -10.59181 -10.56105 -10.55926
 Alpha  occ. eigenvalues --  -10.55586 -10.54301 -10.53990 -10.53458 -10.49725
 Alpha  occ. eigenvalues --  -10.49642 -10.49182 -10.46389 -10.46346 -10.40089
 Alpha  occ. eigenvalues --  -10.27541  -1.44049  -1.43621  -1.42747  -1.42708
 Alpha  occ. eigenvalues --   -1.42231  -1.42103  -1.40081  -1.39725  -1.38577
 Alpha  occ. eigenvalues --   -1.36293  -1.35911  -1.35517  -1.34541  -1.34019
 Alpha  occ. eigenvalues --   -1.33919  -1.33723  -1.33446  -1.33361  -1.33275
 Alpha  occ. eigenvalues --   -1.33188  -1.33072  -1.32673  -1.32604  -1.32466
 Alpha  occ. eigenvalues --   -1.32441  -1.31897  -1.31508  -1.22788  -1.21107
 Alpha  occ. eigenvalues --   -1.21046  -1.20127  -1.18090  -1.12797  -1.09314
 Alpha  occ. eigenvalues --   -1.07169  -0.94544  -0.93765  -0.93576  -0.89571
 Alpha  occ. eigenvalues --   -0.86740  -0.84265  -0.82982  -0.82580  -0.82177
 Alpha  occ. eigenvalues --   -0.80721  -0.79491  -0.77814  -0.76931  -0.76097
 Alpha  occ. eigenvalues --   -0.75313  -0.74569  -0.74062  -0.73682  -0.73278
 Alpha  occ. eigenvalues --   -0.72214  -0.71987  -0.71868  -0.71330  -0.70951
 Alpha  occ. eigenvalues --   -0.70717  -0.70478  -0.70203  -0.69729  -0.69458
 Alpha  occ. eigenvalues --   -0.69300  -0.68996  -0.68717  -0.68079  -0.67898
 Alpha  occ. eigenvalues --   -0.67844  -0.67389  -0.66899  -0.66377  -0.66002
 Alpha  occ. eigenvalues --   -0.65635  -0.64994  -0.64352  -0.64305  -0.61719
 Alpha  occ. eigenvalues --   -0.60361  -0.60009  -0.59385  -0.58937  -0.58202
 Alpha  occ. eigenvalues --   -0.58149  -0.57944  -0.57724  -0.57446  -0.57162
 Alpha  occ. eigenvalues --   -0.56910  -0.56888  -0.56696  -0.56646  -0.56438
 Alpha  occ. eigenvalues --   -0.56235  -0.56093  -0.55931  -0.55650  -0.55576
 Alpha  occ. eigenvalues --   -0.55208  -0.55119  -0.54939  -0.54788  -0.54731
 Alpha  occ. eigenvalues --   -0.54471  -0.54284  -0.54016  -0.53732  -0.53341
 Alpha  occ. eigenvalues --   -0.53309  -0.53204  -0.52962  -0.52797  -0.52687
 Alpha  occ. eigenvalues --   -0.52469  -0.52129  -0.52101  -0.52010  -0.51800
 Alpha  occ. eigenvalues --   -0.51530  -0.51334  -0.51243  -0.51165  -0.50965
 Alpha  occ. eigenvalues --   -0.50756  -0.50718  -0.50550  -0.50485  -0.50319
 Alpha  occ. eigenvalues --   -0.50174  -0.49714  -0.49644  -0.49499  -0.49464
 Alpha  occ. eigenvalues --   -0.49335  -0.49070  -0.48792  -0.48088  -0.48020
 Alpha  occ. eigenvalues --   -0.46195  -0.45794  -0.45351  -0.45141  -0.44412
 Alpha  occ. eigenvalues --   -0.44043  -0.40398  -0.39579  -0.38107  -0.37017
 Alpha  occ. eigenvalues --   -0.30753
 Alpha virt. eigenvalues --    0.00583   0.00962   0.04344   0.04483   0.05375
 Alpha virt. eigenvalues --    0.06094   0.07597   0.08980   0.10974   0.12505
 Alpha virt. eigenvalues --    0.13265   0.15069   0.15732   0.16224   0.16790

 Mulliken charges:
               1
     1  C   -0.340838
     2  C    0.614139
     3  N   -0.689826
     4  C    0.754347
     5  F   -0.255112
     6  F   -0.261544
     7  C    0.445771
     8  F   -0.264990
     9  O   -0.489581
    10  C    0.975636
    11  F   -0.234871
    12  F   -0.239822
    13  F   -0.234736
    14  C    0.807491
    15  F   -0.246305
    16  F   -0.250978
    17  F   -0.248438
    18  C    0.832834
    19  O   -0.476371
    20  N   -0.639482
    21  C    0.778893
    22  F   -0.262179
    23  F   -0.262525
    24  C    0.409926
    25  F   -0.242132
    26  O   -0.513703
    27  C    0.995633
    28  F   -0.240567
    29  F   -0.241613
    30  F   -0.240840
    31  C    0.807083
    32  F   -0.248274
    33  F   -0.247938
    34  F   -0.241440
    35  C    0.806122
    36  O   -0.472331
    37  N   -0.681061
    38  C    0.745658
    39  F   -0.255015
    40  F   -0.244959
    41  C    0.441394
    42  F   -0.265299
    43  O   -0.501078
    44  C    0.995854
    45  F   -0.244311
    46  F   -0.240797
    47  F   -0.236277
    48  C    0.815267
    49  F   -0.242284
    50  F   -0.257373
    51  F   -0.245799
    52  H    0.134163
    53  H    0.140479
 Sum of Mulliken charges =   0.00000

 Dipole moment (field-independent basis, Debye):
    X=             -3.3624    Y=              1.2713    Z=              1.3560  Tot=              3.8420
 Quadrupole moment (field-independent basis, Debye-Ang):
   XX=           -271.1626   YY=           -272.0607   ZZ=           -269.5159
   XY=             -3.9035   XZ=              1.9877   YZ=              3.1543

 Normal termination of Gaussian 09 at Tue Mar  5 17:30:06 2024.
