 Gaussian 09, Revision D.01,
 Gaussian 09:  ES64L-G09RevD.01 24-Apr-2013

 ----------------------------------------------------------------------
 #p CAM-B3LYP/6-31G(d,p) SCRF=(PCM,Solvent=Generic,Read) NoSymm out=wfn
 ----------------------------------------------------------------------

 -------------------
 Title A156206680_p1
 -------------------
 Symbolic Z-matrix:
 Charge =  1 Multiplicity = 2

                          Input orientation:
 ---------------------------------------------------------------------
 Center     Atomic      Atomic             Coordinates (Angstroms)
 Number     Number       Type             X           Y           Z
 ---------------------------------------------------------------------
      1          6           0       -0.735661    1.119423    1.880604
      2          6           0       -0.235089    0.429191    0.843161
      3          7           0        0.824082    0.943101    0.106544
      4          6           0        1.197139    2.378772    0.032862
      5          9           0        1.879854    2.712601    1.164846
      6          9           0        2.082312    2.525843   -1.004513
      7          6           0        0.051104    3.403896   -0.259256
      8          9           0       -0.672840    3.634203    0.879986
      9          8           0       -0.868144    2.820060   -1.204484
     10          6           0       -1.804839    3.746830   -1.702194
     11          9           0       -2.825519    3.065683   -2.274132
     12          9           0       -2.295371    4.514228   -0.716463
     13          9           0       -1.208644    4.506202   -2.636293
     14          6           0        0.758679    4.713076   -0.665461
     15          9           0        1.346704    4.623644   -1.881984
     16          9           0       -0.131802    5.739515   -0.744662
     17          9           0        1.706588    5.094313    0.229160
     18          6           0        1.764561    0.063158   -0.404191
     19          8           0        2.953429    0.357484   -0.517345
     20          7           0        1.284346   -1.169057   -0.782301
     21          6           0        2.204403   -2.063088   -1.476844
     22          9           0        1.522216   -2.890494   -2.320658
     23          9           0        2.940534   -1.305716   -2.351633
     24          6           0        3.187865   -2.885690   -0.606134
     25          9           0        4.119861   -3.476364   -1.416779
     26          8           0        3.864527   -2.094065    0.379776
     27          6           0        5.172184   -1.764081   -0.013625
     28          9           0        5.649034   -0.832871    0.832478
     29          9           0        5.953765   -2.856734    0.076500
     30          9           0        5.205324   -1.280676   -1.263492
     31          6           0        2.428499   -3.998041    0.103337
     32          9           0        1.758763   -4.803115   -0.738746
     33          9           0        3.284310   -4.790613    0.804577
     34          9           0        1.551007   -3.506340    1.010757
     35          6           0        0.073962   -1.653030   -0.362936
     36          8           0       -0.312969   -2.766852   -0.706845
     37          7           0       -0.655389   -0.858099    0.517671
     38          6           0       -1.953062   -1.458741    0.918641
     39          9           0       -2.402643   -0.923868    2.084202
     40          9           0       -1.745186   -2.763413    1.254366
     41          6           0       -3.053825   -1.318050   -0.172564
     42          9           0       -2.596692   -1.851754   -1.354562
     43          8           0       -3.293007    0.057888   -0.532249
     44          6           0       -4.270331    0.718761    0.233376
     45          9           0       -4.000790    0.594655    1.541567
     46          9           0       -4.236883    2.028375   -0.080281
     47          9           0       -5.486408    0.225305   -0.039705
     48          6           0       -4.240687   -2.174720    0.276074
     49          9           0       -4.776008   -1.737483    1.440317
     50          9           0       -3.915704   -3.477370    0.450075
     51          9           0       -5.229813   -2.143586   -0.653020
     52          1           0       -1.519222    0.783427    2.544946
     53          1           0       -0.298521    2.044276    2.244432
 ---------------------------------------------------------------------

 SCF Done:  E(UCAM-B3LYP) =  -3845.57589122     A.U. after   20 cycles

 Alpha  occ. eigenvalues --  -24.90290 -24.89232 -24.88936 -24.88856 -24.88263
 Alpha  occ. eigenvalues --  -24.87802 -24.87400 -24.87160 -24.87084 -24.87027
 Alpha  occ. eigenvalues --  -24.86850 -24.86601 -24.86593 -24.86566 -24.86565
 Alpha  occ. eigenvalues --  -24.86542 -24.86397 -24.86301 -24.86172 -24.86000
 Alpha  occ. eigenvalues --  -24.85787 -24.85680 -24.85630 -24.85272 -24.85139
 Alpha  occ. eigenvalues --  -24.84766 -24.84523 -19.37902 -19.37865 -19.35352
 Alpha  occ. eigenvalues --  -19.31552 -19.30812 -14.63227 -14.62679 -14.59376
 Alpha  occ. eigenvalues --  -10.63575 -10.63191 -10.61402 -10.60325 -10.60140
 Alpha  occ. eigenvalues --  -10.59379 -10.58967 -10.57800 -10.57270 -10.54788
 Alpha  occ. eigenvalues --  -10.54254 -10.54065 -10.53371 -10.53269 -10.52079
 Alpha  occ. eigenvalues --  -10.43257  -1.47205  -1.46412  -1.45888  -1.45309
 Alpha  occ. eigenvalues --   -1.44897  -1.44475  -1.44222  -1.44027  -1.42328
 Alpha  occ. eigenvalues --   -1.41313  -1.39756  -1.38769  -1.38259  -1.38062
 Alpha  occ. eigenvalues --   -1.37478  -1.36861  -1.36784  -1.36173  -1.35764
 Alpha  occ. eigenvalues --   -1.35667  -1.35639  -1.35149  -1.35138  -1.35033
 Alpha  occ. eigenvalues --   -1.34695  -1.34397  -1.34188  -1.30058  -1.25106
 Alpha  occ. eigenvalues --   -1.24974  -1.24879  -1.23124  -1.21616  -1.15993
 Alpha  occ. eigenvalues --   -1.15413  -1.02755  -0.99065  -0.98062  -0.96749
 Alpha  occ. eigenvalues --   -0.92355  -0.90461  -0.88442  -0.86505  -0.86121
 Alpha  occ. eigenvalues --   -0.85464  -0.84362  -0.83249  -0.82632  -0.81212
 Alpha  occ. eigenvalues --   -0.79840  -0.79195  -0.78133  -0.77441  -0.76625
 Alpha  occ. eigenvalues --   -0.76210  -0.75675  -0.75188  -0.74856  -0.74633
 Alpha  occ. eigenvalues --   -0.74277  -0.73960  -0.73640  -0.73398  -0.72823
 Alpha  occ. eigenvalues --   -0.72337  -0.71925  -0.71833  -0.71445  -0.71282
 Alpha  occ. eigenvalues --   -0.71141  -0.70977  -0.70636  -0.70386  -0.70301
 Alpha  occ. eigenvalues --   -0.70166  -0.69381  -0.68798  -0.68482  -0.67699
 Alpha  occ. eigenvalues --   -0.67647  -0.64611  -0.64510  -0.63802  -0.62879
 Alpha  occ. eigenvalues --   -0.62438  -0.62225  -0.61630  -0.61274  -0.61058
 Alpha  occ. eigenvalues --   -0.60933  -0.60868  -0.60625  -0.60477  -0.59963
 Alpha  occ. eigenvalues --   -0.59792  -0.59717  -0.59443  -0.59165  -0.59048
 Alpha  occ. eigenvalues --   -0.58724  -0.58655  -0.58378  -0.58253  -0.58102
 Alpha  occ. eigenvalues --   -0.57897  -0.57773  -0.57561  -0.57540  -0.57169
 Alpha  occ. eigenvalues --   -0.56966  -0.56919  -0.56786  -0.56404  -0.56233
 Alpha  occ. eigenvalues --   -0.55991  -0.55741  -0.55616  -0.55314  -0.55071
 Alpha  occ. eigenvalues --   -0.54921  -0.54797  -0.54556  -0.54390  -0.54297
 Alpha  occ. eigenvalues --   -0.54256  -0.53913  -0.53736  -0.53683  -0.53600
 Alpha  occ. eigenvalues --   -0.53167  -0.53098  -0.53024  -0.52825  -0.52511
 Alpha  occ. eigenvalues --   -0.52375  -0.52117  -0.51975  -0.51812  -0.51598
 Alpha  occ. eigenvalues --   -0.51480  -0.50931  -0.50644  -0.49231  -0.48431
 Alpha  occ. eigenvalues --   -0.47504  -0.46774  -0.45867  -0.44586  -0.43940
 Alpha  occ. eigenvalues --   -0.42803
 Alpha virt. eigenvalues --   -0.09994  -0.07089  -0.01767  -0.00212   0.00330
 Alpha virt. eigenvalues --    0.02368   0.02993   0.04088   0.05189   0.06574
 Alpha virt. eigenvalues --    0.07044   0.08683   0.10576   0.11675   0.12118

  Beta  occ. eigenvalues --  -24.90287 -24.89220 -24.88896 -24.88849 -24.88259
  Beta  occ. eigenvalues --  -24.87800 -24.87400 -24.87160 -24.87084 -24.87027
  Beta  occ. eigenvalues --  -24.86850 -24.86600 -24.86593 -24.86566 -24.86565
  Beta  occ. eigenvalues --  -24.86542 -24.86396 -24.86301 -24.86172 -24.86000
  Beta  occ. eigenvalues --  -24.85787 -24.85675 -24.85627 -24.85272 -24.85139
  Beta  occ. eigenvalues --  -24.84766 -24.84523 -19.37897 -19.37858 -19.35352
  Beta  occ. eigenvalues --  -19.31465 -19.30720 -14.62881 -14.62357 -14.59346
  Beta  occ. eigenvalues --  -10.63575 -10.63191 -10.61402 -10.60339 -10.60152
  Beta  occ. eigenvalues --  -10.59377 -10.58962 -10.57800 -10.57273 -10.54786
  Beta  occ. eigenvalues --  -10.54184 -10.54050 -10.53401 -10.53318 -10.52078
  Beta  occ. eigenvalues --  -10.42300  -1.47201  -1.46405  -1.45874  -1.45293
  Beta  occ. eigenvalues --   -1.44896  -1.44470  -1.44222  -1.44013  -1.42322
  Beta  occ. eigenvalues --   -1.41250  -1.39751  -1.38767  -1.38250  -1.38037
  Beta  occ. eigenvalues --   -1.37474  -1.36860  -1.36783  -1.36172  -1.35762
  Beta  occ. eigenvalues --   -1.35666  -1.35638  -1.35148  -1.35136  -1.35028
  Beta  occ. eigenvalues --   -1.34690  -1.34397  -1.34187  -1.29775  -1.25021
  Beta  occ. eigenvalues --   -1.24937  -1.24734  -1.23105  -1.21204  -1.15481
  Beta  occ. eigenvalues --   -1.15214  -1.00905  -0.98975  -0.97988  -0.96558
  Beta  occ. eigenvalues --   -0.92231  -0.90380  -0.87759  -0.86492  -0.86072
  Beta  occ. eigenvalues --   -0.85330  -0.84017  -0.83203  -0.82547  -0.81125
  Beta  occ. eigenvalues --   -0.79806  -0.79154  -0.78092  -0.77372  -0.76584
  Beta  occ. eigenvalues --   -0.76067  -0.75622  -0.75136  -0.74831  -0.74592
  Beta  occ. eigenvalues --   -0.74215  -0.73880  -0.73599  -0.73375  -0.72755
  Beta  occ. eigenvalues --   -0.72277  -0.71839  -0.71807  -0.71441  -0.71244
  Beta  occ. eigenvalues --   -0.71082  -0.70812  -0.70462  -0.70345  -0.70261
  Beta  occ. eigenvalues --   -0.70134  -0.69215  -0.68523  -0.68307  -0.67666
  Beta  occ. eigenvalues --   -0.67171  -0.64540  -0.64174  -0.63693  -0.62713
  Beta  occ. eigenvalues --   -0.62240  -0.61929  -0.61513  -0.61219  -0.60983
  Beta  occ. eigenvalues --   -0.60804  -0.60779  -0.60608  -0.60346  -0.59895
  Beta  occ. eigenvalues --   -0.59720  -0.59476  -0.59220  -0.59057  -0.58896
  Beta  occ. eigenvalues --   -0.58648  -0.58575  -0.58347  -0.58174  -0.58070
  Beta  occ. eigenvalues --   -0.57809  -0.57722  -0.57524  -0.57175  -0.57140
  Beta  occ. eigenvalues --   -0.56935  -0.56894  -0.56551  -0.56276  -0.56108
  Beta  occ. eigenvalues --   -0.55812  -0.55707  -0.55502  -0.55293  -0.54973
  Beta  occ. eigenvalues --   -0.54869  -0.54778  -0.54529  -0.54358  -0.54269
  Beta  occ. eigenvalues --   -0.54238  -0.53883  -0.53682  -0.53643  -0.53523
  Beta  occ. eigenvalues --   -0.53144  -0.53044  -0.53007  -0.52771  -0.52462
  Beta  occ. eigenvalues --   -0.52356  -0.52112  -0.51920  -0.51800  -0.51591
  Beta  occ. eigenvalues --   -0.51478  -0.50826  -0.50570  -0.49083  -0.48039
  Beta  occ. eigenvalues --   -0.46666  -0.45916  -0.44915  -0.43982  -0.42686
  Beta virt. eigenvalues --   -0.24291  -0.07279  -0.05323  -0.01533  -0.00129
  Beta virt. eigenvalues --    0.00406   0.02498   0.03236   0.04132   0.05595
  Beta virt. eigenvalues --    0.06760   0.07282   0.08797   0.10671   0.11879

 Mulliken charges and spin densities:
               1          2
     1  C   -0.164452   0.651249
     2  C    0.683851   0.064209
     3  N   -0.645687   0.136040
     4  C    0.767018  -0.006469
     5  F   -0.226753   0.003290
     6  F   -0.233865   0.001872
     7  C    0.406460   0.000318
     8  F   -0.254702   0.007628
     9  O   -0.512344   0.001712
    10  C    1.006699  -0.000160
    11  F   -0.236247  -0.000001
    12  F   -0.235153   0.000022
    13  F   -0.233193   0.000043
    14  C    0.833223   0.000495
    15  F   -0.235452   0.000135
    16  F   -0.250108   0.000057
    17  F   -0.237195  -0.000030
    18  C    0.873038  -0.018695
    19  O   -0.413934   0.033287
    20  N   -0.646471   0.014600
    21  C    0.748144  -0.000521
    22  F   -0.232060   0.000302
    23  F   -0.250337   0.000768
    24  C    0.438049   0.000472
    25  F   -0.258933   0.000237
    26  O   -0.536191   0.000048
    27  C    1.032818  -0.000038
    28  F   -0.242041   0.000003
    29  F   -0.246847   0.000001
    30  F   -0.246555   0.000026
    31  C    0.820130   0.000025
    32  F   -0.229248   0.000032
    33  F   -0.248470   0.000013
    34  F   -0.251441   0.000191
    35  C    0.891315  -0.025517
    36  O   -0.435008   0.036709
    37  N   -0.662331   0.146195
    38  C    0.752472  -0.007511
    39  F   -0.237148   0.001048
    40  F   -0.222797   0.000975
    41  C    0.447733   0.005623
    42  F   -0.246347   0.000169
    43  O   -0.506212   0.001908
    44  C    0.993606  -0.000565
    45  F   -0.243525   0.000572
    46  F   -0.232678   0.000078
    47  F   -0.227884   0.000093
    48  C    0.822953   0.001750
    49  F   -0.245712   0.000013
    50  F   -0.235606   0.000029
    51  F   -0.247308   0.000700
    52  H    0.253135  -0.026268
    53  H    0.239589  -0.027161
 Sum of Mulliken charges =   1.00000   1.00000

 Dipole moment (field-independent basis, Debye):
    X=             -3.5609    Y=              4.2979    Z=              5.0450  Tot=              7.5235
 Quadrupole moment (field-independent basis, Debye-Ang):
   XX=           -256.3369   YY=           -254.6928   ZZ=           -251.4239
   XY=             -4.9715   XZ=             -4.8501   YZ=              3.4672

 Normal termination of Gaussian 09 at Sun Mar  3 18:16:56 2024.
