 Gaussian 09, Revision D.01,
 Gaussian 09:  ES64L-G09RevD.01 24-Apr-2013

 ----------------------------------------------------------------------
 #p CAM-B3LYP/6-31G(d,p) SCRF=(PCM,Solvent=Generic,Read) NoSymm out=wfn
 ----------------------------------------------------------------------

 --------------------
 Title A1635117082_p1
 --------------------
 Symbolic Z-matrix:
 Charge =  1 Multiplicity = 2

                          Input orientation:
 ---------------------------------------------------------------------
 Center     Atomic      Atomic             Coordinates (Angstroms)
 Number     Number       Type             X           Y           Z
 ---------------------------------------------------------------------
      1          6           0       -1.895640   -5.580473   -0.217871
      2          6           0       -2.657972   -4.314004   -0.575286
      3          6           0       -1.766537   -3.075948   -0.681172
      4          6           0       -1.134593   -2.667015    0.652834
      5          7           0       -0.380674   -1.419379    0.511013
      6          6           0       -1.039642   -0.234403    0.785703
      7          8           0       -2.198303   -0.184576    1.187323
      8          7           0       -0.316094    0.907040    0.580733
      9          6           0       -0.968874    2.198927    0.726204
     10          9           0       -1.680235    2.243328    1.879399
     11          9           0        0.055747    3.091779    0.933953
     12          6           0       -1.796422    2.758181   -0.459824
     13          9           0       -1.007802    2.588670   -1.588703
     14          8           0       -1.989001    4.183305   -0.452737
     15          6           0       -2.576844    4.691419    0.718294
     16          9           0       -3.641939    3.964657    1.071260
     17          9           0       -2.973986    5.954444    0.480431
     18          9           0       -1.677479    4.703258    1.712616
     19          6           0       -3.077767    1.958718   -0.699744
     20          9           0       -2.797057    0.729904   -1.199547
     21          9           0       -3.848128    1.799289    0.388797
     22          9           0       -3.844173    2.575792   -1.638149
     23          6           0        0.831657    0.826772   -0.265402
     24          7           0        1.637933   -0.305582    0.062189
     25          6           0        3.042566   -0.401842   -0.344799
     26          9           0        3.106870   -1.062991   -1.528749
     27          9           0        3.648737   -1.215124    0.577106
     28          6           0        3.949191    0.862751   -0.404588
     29          9           0        5.269089    0.493298   -0.325544
     30          8           0        3.740373    1.837028    0.625440
     31          6           0        3.966367    1.323138    1.918182
     32          9           0        2.903456    0.592260    2.291725
     33          9           0        5.079956    0.581558    1.981367
     34          9           0        4.085003    2.361939    2.765962
     35          6           0        3.784952    1.505063   -1.782972
     36          9           0        4.514489    2.644979   -1.879495
     37          9           0        4.186422    0.701027   -2.790777
     38          9           0        2.502135    1.850288   -2.041509
     39          6           0        0.973185   -1.512533    0.203596
     40          8           0        1.538176   -2.595968    0.074953
     41          1           0       -1.478647   -5.526564    0.791936
     42          1           0       -2.566583   -6.444850   -0.252848
     43          1           0       -1.076921   -5.758550   -0.922175
     44          1           0       -3.154833   -4.467603   -1.540670
     45          1           0       -3.448836   -4.142701    0.164159
     46          1           0       -0.981511   -3.247632   -1.428080
     47          1           0       -2.374481   -2.244999   -1.061219
     48          1           0       -0.466899   -3.455047    1.016645
     49          1           0       -1.916814   -2.542281    1.410481
     50          1           0        0.504842    0.736202   -1.307185
     51          1           0        1.413541    1.735052   -0.123254
 ---------------------------------------------------------------------

 SCF Done:  E(UCAM-B3LYP) =  -2839.37093602     A.U. after   38 cycles

 Alpha  occ. eigenvalues --  -24.87584 -24.86957 -24.86940 -24.86935 -24.86929
 Alpha  occ. eigenvalues --  -24.86690 -24.86426 -24.86277 -24.86269 -24.86070
 Alpha  occ. eigenvalues --  -24.86061 -24.85897 -24.85867 -24.85793 -24.85524
 Alpha  occ. eigenvalues --  -24.85397 -24.85339 -24.85145 -19.36648 -19.35828
 Alpha  occ. eigenvalues --  -19.32764 -19.32747 -14.66149 -14.56896 -14.56794
 Alpha  occ. eigenvalues --  -10.62561 -10.61816 -10.58561 -10.58252 -10.57106
 Alpha  occ. eigenvalues --  -10.57076 -10.52840 -10.52796 -10.52788 -10.52441
 Alpha  occ. eigenvalues --  -10.42995 -10.40278 -10.34056 -10.30681 -10.28015
 Alpha  occ. eigenvalues --   -1.45957  -1.45690  -1.45089  -1.44551  -1.42799
 Alpha  occ. eigenvalues --   -1.42580  -1.38819  -1.38599  -1.36465  -1.36461
 Alpha  occ. eigenvalues --   -1.36289  -1.35647  -1.35639  -1.35584  -1.35405
 Alpha  occ. eigenvalues --   -1.35130  -1.34795  -1.34649  -1.30122  -1.25430
 Alpha  occ. eigenvalues --   -1.23996  -1.23148  -1.18860  -1.17087  -1.12285
 Alpha  occ. eigenvalues --   -0.98011  -0.96709  -0.96302  -0.91290  -0.90339
 Alpha  occ. eigenvalues --   -0.90134  -0.85877  -0.85150  -0.84555  -0.83997
 Alpha  occ. eigenvalues --   -0.81489  -0.79116  -0.78901  -0.77532  -0.76635
 Alpha  occ. eigenvalues --   -0.76226  -0.75376  -0.75239  -0.73829  -0.73393
 Alpha  occ. eigenvalues --   -0.73013  -0.72850  -0.72437  -0.72186  -0.71587
 Alpha  occ. eigenvalues --   -0.71385  -0.71214  -0.70615  -0.70345  -0.69795
 Alpha  occ. eigenvalues --   -0.69194  -0.68359  -0.68148  -0.67480  -0.66887
 Alpha  occ. eigenvalues --   -0.65914  -0.63328  -0.63166  -0.62197  -0.61730
 Alpha  occ. eigenvalues --   -0.61337  -0.60723  -0.60428  -0.60070  -0.59947
 Alpha  occ. eigenvalues --   -0.59787  -0.59344  -0.59204  -0.58999  -0.58779
 Alpha  occ. eigenvalues --   -0.58687  -0.58400  -0.58005  -0.57904  -0.57549
 Alpha  occ. eigenvalues --   -0.56999  -0.56829  -0.56484  -0.56037  -0.55884
 Alpha  occ. eigenvalues --   -0.55571  -0.55433  -0.55170  -0.54842  -0.54636
 Alpha  occ. eigenvalues --   -0.54576  -0.54231  -0.53956  -0.53746  -0.53646
 Alpha  occ. eigenvalues --   -0.53452  -0.53241  -0.53030  -0.52883  -0.52745
 Alpha  occ. eigenvalues --   -0.52444  -0.52305  -0.52052  -0.51903  -0.51148
 Alpha  occ. eigenvalues --   -0.50965  -0.49958  -0.49659  -0.48606  -0.48119
 Alpha  occ. eigenvalues --   -0.47424  -0.46522  -0.45453  -0.44806  -0.44494
 Alpha  occ. eigenvalues --   -0.44062  -0.43831  -0.42573
 Alpha virt. eigenvalues --   -0.06939  -0.01167   0.01377   0.02151   0.03156
 Alpha virt. eigenvalues --    0.05579   0.07373   0.09479   0.09863   0.10860
 Alpha virt. eigenvalues --    0.11876   0.12253   0.13046   0.13268   0.13554

  Beta  occ. eigenvalues --  -24.87584 -24.86952 -24.86939 -24.86927 -24.86921
  Beta  occ. eigenvalues --  -24.86688 -24.86424 -24.86277 -24.86269 -24.86070
  Beta  occ. eigenvalues --  -24.86061 -24.85897 -24.85866 -24.85781 -24.85524
  Beta  occ. eigenvalues --  -24.85397 -24.85339 -24.85144 -19.36648 -19.35826
  Beta  occ. eigenvalues --  -19.32357 -19.32301 -14.64864 -14.56870 -14.56733
  Beta  occ. eigenvalues --  -10.62561 -10.61816 -10.58561 -10.58252 -10.57109
  Beta  occ. eigenvalues --  -10.57081 -10.53010 -10.52962 -10.52796 -10.52440
  Beta  occ. eigenvalues --  -10.43001 -10.40209 -10.33860 -10.30641 -10.28008
  Beta  occ. eigenvalues --   -1.45956  -1.45689  -1.45089  -1.44546  -1.42791
  Beta  occ. eigenvalues --   -1.42561  -1.38818  -1.38598  -1.36463  -1.36458
  Beta  occ. eigenvalues --   -1.36286  -1.35644  -1.35630  -1.35578  -1.35389
  Beta  occ. eigenvalues --   -1.35129  -1.34792  -1.34646  -1.29009  -1.24763
  Beta  occ. eigenvalues --   -1.23993  -1.23145  -1.18085  -1.15382  -1.12052
  Beta  occ. eigenvalues --   -0.97729  -0.96562  -0.96023  -0.91162  -0.90174
  Beta  occ. eigenvalues --   -0.89817  -0.85577  -0.84984  -0.84489  -0.83984
  Beta  occ. eigenvalues --   -0.81219  -0.79015  -0.78682  -0.77491  -0.76458
  Beta  occ. eigenvalues --   -0.76179  -0.75332  -0.75233  -0.73822  -0.73381
  Beta  occ. eigenvalues --   -0.72975  -0.72526  -0.72254  -0.71786  -0.71543
  Beta  occ. eigenvalues --   -0.71190  -0.70811  -0.70586  -0.70269  -0.69387
  Beta  occ. eigenvalues --   -0.69111  -0.68207  -0.67624  -0.67141  -0.66772
  Beta  occ. eigenvalues --   -0.65025  -0.63297  -0.62040  -0.61714  -0.61473
  Beta  occ. eigenvalues --   -0.61169  -0.60453  -0.60207  -0.59999  -0.59796
  Beta  occ. eigenvalues --   -0.59491  -0.59324  -0.58991  -0.58796  -0.58717
  Beta  occ. eigenvalues --   -0.58622  -0.58165  -0.57966  -0.57884  -0.57483
  Beta  occ. eigenvalues --   -0.56919  -0.56524  -0.56280  -0.55780  -0.55566
  Beta  occ. eigenvalues --   -0.55520  -0.55337  -0.55095  -0.54730  -0.54584
  Beta  occ. eigenvalues --   -0.54467  -0.54212  -0.53709  -0.53586  -0.53566
  Beta  occ. eigenvalues --   -0.53241  -0.53220  -0.52964  -0.52785  -0.52432
  Beta  occ. eigenvalues --   -0.52343  -0.52046  -0.51893  -0.51625  -0.51138
  Beta  occ. eigenvalues --   -0.50927  -0.49712  -0.49313  -0.47973  -0.47052
  Beta  occ. eigenvalues --   -0.46184  -0.44646  -0.44549  -0.44258  -0.43689
  Beta  occ. eigenvalues --   -0.43375  -0.41484
  Beta virt. eigenvalues --   -0.28014  -0.06048   0.00490   0.01464   0.02382
  Beta virt. eigenvalues --    0.03170   0.05656   0.07706   0.09565   0.09916
  Beta virt. eigenvalues --    0.11100   0.11977   0.12338   0.13176   0.13363

 Mulliken charges and spin densities:
               1          2
     1  C   -0.334501   0.003114
     2  C   -0.199971   0.022464
     3  C   -0.209298   0.098925
     4  C   -0.103858   0.029170
     5  N   -0.458002   0.586987
     6  C    0.864560  -0.101236
     7  O   -0.416181   0.179020
     8  N   -0.567672   0.017382
     9  C    0.750945  -0.002094
    10  F   -0.239710   0.001199
    11  F   -0.270820   0.000468
    12  C    0.439479   0.000216
    13  F   -0.273719   0.000068
    14  O   -0.492943   0.000487
    15  C    0.986044  -0.000029
    16  F   -0.234145   0.000000
    17  F   -0.233096   0.000017
    18  F   -0.236773   0.000028
    19  C    0.819118  -0.000153
    20  F   -0.253580   0.001647
    21  F   -0.226400   0.000237
    22  F   -0.246411   0.000120
    23  C    0.070262  -0.000666
    24  N   -0.561088   0.032002
    25  C    0.777599  -0.003032
    26  F   -0.243537   0.002128
    27  F   -0.268425   0.002938
    28  C    0.391278   0.000030
    29  F   -0.254632  -0.000040
    30  O   -0.511686  -0.000029
    31  C    1.000776  -0.000026
    32  F   -0.246340   0.000357
    33  F   -0.227477   0.000011
    34  F   -0.231147   0.000028
    35  C    0.814581   0.000004
    36  F   -0.240139   0.000028
    37  F   -0.231372   0.000011
    38  F   -0.237323  -0.000021
    39  C    0.879116  -0.100470
    40  O   -0.405423   0.164484
    41  H    0.120446   0.003722
    42  H    0.137394   0.003467
    43  H    0.127872  -0.000283
    44  H    0.157052   0.021191
    45  H    0.138072   0.000042
    46  H    0.163880  -0.002072
    47  H    0.156639  -0.002529
    48  H    0.227414   0.018974
    49  H    0.228564   0.015360
    50  H    0.203360   0.005774
    51  H    0.201217   0.000581
 Sum of Mulliken charges =   1.00000   1.00000

 Dipole moment (field-independent basis, Debye):
    X=             -2.3153    Y=             -6.0075    Z=              0.1243  Tot=              6.4394
 Quadrupole moment (field-independent basis, Debye-Ang):
   XX=           -201.8623   YY=           -181.5766   ZZ=           -207.9106
   XY=             18.8310   XZ=              1.9790   YZ=              0.1848

 Normal termination of Gaussian 09 at Sun Mar  3 17:37:16 2024.
