 Gaussian 09, Revision D.01,
 Gaussian 09:  ES64L-G09RevD.01 24-Apr-2013

 ----------------------------------------------------------------------
 #p CAM-B3LYP/6-31G(d,p) SCRF=(PCM,Solvent=Generic,Read) NoSymm out=wfn
 ----------------------------------------------------------------------

 -------------------
 Title A1635117082_0
 -------------------
 Symbolic Z-matrix:
 Charge =  0 Multiplicity = 1

                          Input orientation:
 ---------------------------------------------------------------------
 Center     Atomic      Atomic             Coordinates (Angstroms)
 Number     Number       Type             X           Y           Z
 ---------------------------------------------------------------------
      1          6           0       -1.895640   -5.580473   -0.217871
      2          6           0       -2.657972   -4.314004   -0.575286
      3          6           0       -1.766537   -3.075948   -0.681172
      4          6           0       -1.134593   -2.667015    0.652834
      5          7           0       -0.380674   -1.419379    0.511013
      6          6           0       -1.039642   -0.234403    0.785703
      7          8           0       -2.198303   -0.184576    1.187323
      8          7           0       -0.316094    0.907040    0.580733
      9          6           0       -0.968874    2.198927    0.726204
     10          9           0       -1.680235    2.243328    1.879399
     11          9           0        0.055747    3.091779    0.933953
     12          6           0       -1.796422    2.758181   -0.459824
     13          9           0       -1.007802    2.588670   -1.588703
     14          8           0       -1.989001    4.183305   -0.452737
     15          6           0       -2.576844    4.691419    0.718294
     16          9           0       -3.641939    3.964657    1.071260
     17          9           0       -2.973986    5.954444    0.480431
     18          9           0       -1.677479    4.703258    1.712616
     19          6           0       -3.077767    1.958718   -0.699744
     20          9           0       -2.797057    0.729904   -1.199547
     21          9           0       -3.848128    1.799289    0.388797
     22          9           0       -3.844173    2.575792   -1.638149
     23          6           0        0.831657    0.826772   -0.265402
     24          7           0        1.637933   -0.305582    0.062189
     25          6           0        3.042566   -0.401842   -0.344799
     26          9           0        3.106870   -1.062991   -1.528749
     27          9           0        3.648737   -1.215124    0.577106
     28          6           0        3.949191    0.862751   -0.404588
     29          9           0        5.269089    0.493298   -0.325544
     30          8           0        3.740373    1.837028    0.625440
     31          6           0        3.966367    1.323138    1.918182
     32          9           0        2.903456    0.592260    2.291725
     33          9           0        5.079956    0.581558    1.981367
     34          9           0        4.085003    2.361939    2.765962
     35          6           0        3.784952    1.505063   -1.782972
     36          9           0        4.514489    2.644979   -1.879495
     37          9           0        4.186422    0.701027   -2.790777
     38          9           0        2.502135    1.850288   -2.041509
     39          6           0        0.973185   -1.512533    0.203596
     40          8           0        1.538176   -2.595968    0.074953
     41          1           0       -1.478647   -5.526564    0.791936
     42          1           0       -2.566583   -6.444850   -0.252848
     43          1           0       -1.076921   -5.758550   -0.922175
     44          1           0       -3.154833   -4.467603   -1.540670
     45          1           0       -3.448836   -4.142701    0.164159
     46          1           0       -0.981511   -3.247632   -1.428080
     47          1           0       -2.374481   -2.244999   -1.061219
     48          1           0       -0.466899   -3.455047    1.016645
     49          1           0       -1.916814   -2.542281    1.410481
     50          1           0        0.504842    0.736202   -1.307185
     51          1           0        1.413541    1.735052   -0.123254
 ---------------------------------------------------------------------

 SCF Done:  E(RCAM-B3LYP) =  -2839.68417225     A.U. after   13 cycles

 Alpha  occ. eigenvalues --  -24.84962 -24.84206 -24.84091 -24.83916 -24.83836
 Alpha  occ. eigenvalues --  -24.83836 -24.83798 -24.83566 -24.83445 -24.83433
 Alpha  occ. eigenvalues --  -24.83312 -24.83310 -24.82771 -24.82768 -24.82669
 Alpha  occ. eigenvalues --  -24.82531 -24.82499 -24.81514 -19.33954 -19.33170
 Alpha  occ. eigenvalues --  -19.22245 -19.22032 -14.49567 -14.49296 -14.48811
 Alpha  occ. eigenvalues --  -10.60167 -10.59715 -10.56108 -10.55148 -10.52570
 Alpha  occ. eigenvalues --  -10.52480 -10.49712 -10.49038 -10.43714 -10.43575
 Alpha  occ. eigenvalues --  -10.37263 -10.30411 -10.25889 -10.25446 -10.24394
 Alpha  occ. eigenvalues --   -1.43555  -1.43507  -1.42705  -1.41522  -1.38828
 Alpha  occ. eigenvalues --   -1.38517  -1.35873  -1.35651  -1.34208  -1.33970
 Alpha  occ. eigenvalues --   -1.33777  -1.33455  -1.33274  -1.32794  -1.32431
 Alpha  occ. eigenvalues --   -1.31925  -1.31609  -1.31231  -1.21316  -1.20540
 Alpha  occ. eigenvalues --   -1.19512  -1.15834  -1.10330  -1.05126  -1.04932
 Alpha  occ. eigenvalues --   -0.93905  -0.92760  -0.88904  -0.85499  -0.84216
 Alpha  occ. eigenvalues --   -0.83355  -0.82067  -0.81578  -0.80230  -0.77750
 Alpha  occ. eigenvalues --   -0.76678  -0.75194  -0.74263  -0.73236  -0.72603
 Alpha  occ. eigenvalues --   -0.72053  -0.71594  -0.71202  -0.70908  -0.70221
 Alpha  occ. eigenvalues --   -0.69972  -0.69678  -0.69619  -0.68741  -0.68419
 Alpha  occ. eigenvalues --   -0.68264  -0.67629  -0.66240  -0.65607  -0.65286
 Alpha  occ. eigenvalues --   -0.65123  -0.64473  -0.62805  -0.62273  -0.60834
 Alpha  occ. eigenvalues --   -0.59479  -0.59022  -0.58033  -0.57710  -0.57469
 Alpha  occ. eigenvalues --   -0.57099  -0.56870  -0.56724  -0.56318  -0.56133
 Alpha  occ. eigenvalues --   -0.55893  -0.55552  -0.55266  -0.55216  -0.55103
 Alpha  occ. eigenvalues --   -0.54510  -0.54400  -0.53971  -0.53719  -0.53656
 Alpha  occ. eigenvalues --   -0.53170  -0.53025  -0.52608  -0.52398  -0.52227
 Alpha  occ. eigenvalues --   -0.52108  -0.52051  -0.51530  -0.51385  -0.51261
 Alpha  occ. eigenvalues --   -0.50877  -0.50829  -0.50647  -0.50536  -0.50295
 Alpha  occ. eigenvalues --   -0.49995  -0.49705  -0.49510  -0.49336  -0.49156
 Alpha  occ. eigenvalues --   -0.49101  -0.48743  -0.48398  -0.47978  -0.47378
 Alpha  occ. eigenvalues --   -0.47015  -0.45918  -0.44483  -0.43704  -0.43350
 Alpha  occ. eigenvalues --   -0.40366  -0.39477  -0.39214  -0.37727  -0.37645
 Alpha  occ. eigenvalues --   -0.35549  -0.35190  -0.34576
 Alpha virt. eigenvalues --    0.01620   0.05027   0.05511   0.07190   0.07989
 Alpha virt. eigenvalues --    0.10011   0.13245   0.14114   0.14818   0.16273
 Alpha virt. eigenvalues --    0.16592   0.17197   0.18022   0.18162   0.18286

 Mulliken charges:
               1
     1  C   -0.323172
     2  C   -0.187058
     3  C   -0.179492
     4  C   -0.061023
     5  N   -0.600853
     6  C    0.828565
     7  O   -0.531489
     8  N   -0.577419
     9  C    0.745954
    10  F   -0.251483
    11  F   -0.286170
    12  C    0.432159
    13  F   -0.279637
    14  O   -0.503881
    15  C    0.981879
    16  F   -0.235751
    17  F   -0.238897
    18  F   -0.238363
    19  C    0.817877
    20  F   -0.249015
    21  F   -0.230231
    22  F   -0.256621
    23  C    0.087781
    24  N   -0.574361
    25  C    0.769559
    26  F   -0.257034
    27  F   -0.281001
    28  C    0.390663
    29  F   -0.265724
    30  O   -0.516326
    31  C    0.996565
    32  F   -0.240773
    33  F   -0.232276
    34  F   -0.237215
    35  C    0.808143
    36  F   -0.247614
    37  F   -0.236068
    38  F   -0.236204
    39  C    0.839712
    40  O   -0.518630
    41  H    0.108480
    42  H    0.106724
    43  H    0.110654
    44  H    0.103659
    45  H    0.103862
    46  H    0.110189
    47  H    0.104981
    48  H    0.149751
    49  H    0.148599
    50  H    0.161857
    51  H    0.166167
 Sum of Mulliken charges =   0.00000

 Dipole moment (field-independent basis, Debye):
    X=              0.0635    Y=              0.7903    Z=             -0.9950  Tot=              1.2723
 Quadrupole moment (field-independent basis, Debye-Ang):
   XX=           -224.6538   YY=           -218.4114   ZZ=           -216.1559
   XY=             11.1607   XZ=              2.9223   YZ=             -0.1236

 Normal termination of Gaussian 09 at Sun Mar  3 17:34:10 2024.
