 Gaussian 09, Revision D.01,
 Gaussian 09:  ES64L-G09RevD.01 24-Apr-2013

 ----------------------------------------------------------------------
 #p CAM-B3LYP/6-31G(d,p) SCRF=(PCM,Solvent=Generic,Read) NoSymm out=wfn
 ----------------------------------------------------------------------

 ------------------
 Title A591161042_0
 ------------------
 Symbolic Z-matrix:
 Charge =  0 Multiplicity = 1

                          Input orientation:
 ---------------------------------------------------------------------
 Center     Atomic      Atomic             Coordinates (Angstroms)
 Number     Number       Type             X           Y           Z
 ---------------------------------------------------------------------
      1          8           0       -1.876892    2.516734    1.287754
      2          6           0       -0.927869    1.861482    0.871409
      3          7           0        0.132161    2.525908    0.343558
      4          6           0        0.932460    1.900938   -0.645385
      5          7           0        1.174102    0.536263   -0.320097
      6          6           0        2.185173   -0.145238   -1.121497
      7          9           0        1.592676   -0.626160   -2.246568
      8          9           0        3.033946    0.817724   -1.586199
      9          6           0        3.016722   -1.252966   -0.406471
     10          9           0        2.299609   -2.424677   -0.401549
     11          8           0        3.243885   -1.009386    0.990917
     12          6           0        4.221491   -0.042148    1.261109
     13          9           0        4.149393    0.291825    2.561533
     14          9           0        4.007442    1.058745    0.525965
     15          9           0        5.439567   -0.538859    1.004638
     16          6           0        4.250222   -1.511566   -1.277828
     17          9           0        3.920665   -1.879196   -2.536417
     18          9           0        5.052965   -0.428269   -1.381726
     19          9           0        5.009931   -2.507357   -0.759116
     20          6           0        0.122355   -0.200825    0.174223
     21          8           0        0.056232   -1.410437   -0.010027
     22          7           0       -0.838342    0.494344    0.878591
     23          6           0       -1.981208   -0.254852    1.379420
     24          9           0       -1.539996   -1.424639    1.923444
     25          9           0       -2.523068    0.400624    2.447098
     26          6           0       -3.077553   -0.525374    0.321106
     27          9           0       -2.556088   -1.293006   -0.681000
     28          8           0       -3.448234    0.710317   -0.305028
     29          6           0       -4.595365    0.604671   -1.104545
     30          9           0       -5.685739    0.590077   -0.322183
     31          9           0       -4.653298    1.683154   -1.908409
     32          9           0       -4.554652   -0.498098   -1.867617
     33          6           0       -4.178337   -1.299734    1.058961
     34          9           0       -5.144673   -1.719400    0.205227
     35          9           0       -3.721989   -2.409052    1.679182
     36          9           0       -4.793795   -0.538485    1.991455
     37          1           0       -0.021020    3.525891    0.280205
     38          1           0        1.868151    2.464436   -0.697717
     39          1           0        0.408972    1.956590   -1.606415
 ---------------------------------------------------------------------

 SCF Done:  E(RCAM-B3LYP) =  -2682.50784697     A.U. after   13 cycles

 Alpha  occ. eigenvalues --  -24.84593 -24.83944 -24.83884 -24.83612 -24.83553
 Alpha  occ. eigenvalues --  -24.83474 -24.83459 -24.83368 -24.83130 -24.83045
 Alpha  occ. eigenvalues --  -24.82864 -24.82782 -24.82694 -24.82520 -24.82307
 Alpha  occ. eigenvalues --  -24.82280 -24.82243 -24.82240 -19.33293 -19.32933
 Alpha  occ. eigenvalues --  -19.23098 -19.21275 -14.51443 -14.49427 -14.45973
 Alpha  occ. eigenvalues --  -10.60027 -10.59524 -10.55312 -10.55183 -10.52619
 Alpha  occ. eigenvalues --  -10.52340 -10.48949 -10.48631 -10.45085 -10.43117
 Alpha  occ. eigenvalues --  -10.36381  -1.43839  -1.43173  -1.41824  -1.41549
 Alpha  occ. eigenvalues --   -1.39171  -1.38476  -1.35477  -1.34833  -1.34466
 Alpha  occ. eigenvalues --   -1.33792  -1.33507  -1.33227  -1.32694  -1.32550
 Alpha  occ. eigenvalues --   -1.32213  -1.31937  -1.31684  -1.31023  -1.20842
 Alpha  occ. eigenvalues --   -1.20646  -1.20263  -1.16043  -1.09781  -1.07578
 Alpha  occ. eigenvalues --   -1.02574  -0.93251  -0.92756  -0.85452  -0.84292
 Alpha  occ. eigenvalues --   -0.82545  -0.82058  -0.80046  -0.78407  -0.76706
 Alpha  occ. eigenvalues --   -0.75681  -0.73971  -0.73068  -0.72224  -0.71935
 Alpha  occ. eigenvalues --   -0.71161  -0.70466  -0.70289  -0.70185  -0.69150
 Alpha  occ. eigenvalues --   -0.69063  -0.68635  -0.68258  -0.67646  -0.67151
 Alpha  occ. eigenvalues --   -0.66458  -0.66197  -0.64763  -0.64157  -0.63318
 Alpha  occ. eigenvalues --   -0.61610  -0.59882  -0.59742  -0.59104  -0.58148
 Alpha  occ. eigenvalues --   -0.57799  -0.57458  -0.57203  -0.56984  -0.56414
 Alpha  occ. eigenvalues --   -0.56092  -0.56005  -0.55915  -0.55595  -0.55475
 Alpha  occ. eigenvalues --   -0.54963  -0.54751  -0.54610  -0.54197  -0.53669
 Alpha  occ. eigenvalues --   -0.53609  -0.53281  -0.53122  -0.52770  -0.52520
 Alpha  occ. eigenvalues --   -0.52133  -0.51998  -0.51690  -0.51508  -0.51113
 Alpha  occ. eigenvalues --   -0.50658  -0.50538  -0.50431  -0.50274  -0.50245
 Alpha  occ. eigenvalues --   -0.49790  -0.49641  -0.49493  -0.49323  -0.48918
 Alpha  occ. eigenvalues --   -0.48694  -0.48395  -0.48289  -0.47952  -0.45565
 Alpha  occ. eigenvalues --   -0.44327  -0.42983  -0.38791  -0.37871  -0.37054
 Alpha  occ. eigenvalues --   -0.35393  -0.33599
 Alpha virt. eigenvalues --    0.01858   0.05615   0.06274   0.07098   0.08574
 Alpha virt. eigenvalues --    0.10433   0.12944   0.14225   0.16507   0.17586
 Alpha virt. eigenvalues --    0.17904   0.17999   0.18826   0.20122   0.20327

 Mulliken charges:
               1
     1  O   -0.525160
     2  C    0.774842
     3  N   -0.563426
     4  C    0.099893
     5  N   -0.591128
     6  C    0.771460
     7  F   -0.255056
     8  F   -0.279490
     9  C    0.431446
    10  F   -0.258812
    11  O   -0.499754
    12  C    0.982632
    13  F   -0.236916
    14  F   -0.244941
    15  F   -0.238085
    16  C    0.804786
    17  F   -0.244285
    18  F   -0.251325
    19  F   -0.256473
    20  C    0.840464
    21  O   -0.503254
    22  N   -0.641396
    23  C    0.753782
    24  F   -0.257472
    25  F   -0.254004
    26  C    0.435120
    27  F   -0.258355
    28  O   -0.508156
    29  C    0.995599
    30  F   -0.242914
    31  F   -0.241000
    32  F   -0.243285
    33  C    0.813285
    34  F   -0.261007
    35  F   -0.243921
    36  F   -0.246378
    37  H    0.317121
    38  H    0.170820
    39  H    0.154743
 Sum of Mulliken charges =   0.00000

 Dipole moment (field-independent basis, Debye):
    X=              3.0402    Y=              4.2204    Z=             -2.1430  Tot=              5.6256
 Quadrupole moment (field-independent basis, Debye-Ang):
   XX=           -196.4343   YY=           -187.4850   ZZ=           -192.4096
   XY=              9.5476   XZ=              6.2408   YZ=             -6.7349

 Normal termination of Gaussian 09 at Sun Mar  3 18:07:05 2024.
