 Gaussian 09, Revision D.01,
 Gaussian 09:  ES64L-G09RevD.01 24-Apr-2013

 ----------------------------------------------------------------------
 #p CAM-B3LYP/6-31G(d,p) SCRF=(PCM,Solvent=Generic,Read) NoSymm out=wfn
 ----------------------------------------------------------------------

 -------------------
 Title A591161042_p1
 -------------------
 Symbolic Z-matrix:
 Charge =  1 Multiplicity = 2

                          Input orientation:
 ---------------------------------------------------------------------
 Center     Atomic      Atomic             Coordinates (Angstroms)
 Number     Number       Type             X           Y           Z
 ---------------------------------------------------------------------
      1          8           0       -1.876892    2.516734    1.287754
      2          6           0       -0.927869    1.861482    0.871409
      3          7           0        0.132161    2.525908    0.343558
      4          6           0        0.932460    1.900938   -0.645385
      5          7           0        1.174102    0.536263   -0.320097
      6          6           0        2.185173   -0.145238   -1.121497
      7          9           0        1.592676   -0.626160   -2.246568
      8          9           0        3.033946    0.817724   -1.586199
      9          6           0        3.016722   -1.252966   -0.406471
     10          9           0        2.299609   -2.424677   -0.401549
     11          8           0        3.243885   -1.009386    0.990917
     12          6           0        4.221491   -0.042148    1.261109
     13          9           0        4.149393    0.291825    2.561533
     14          9           0        4.007442    1.058745    0.525965
     15          9           0        5.439567   -0.538859    1.004638
     16          6           0        4.250222   -1.511566   -1.277828
     17          9           0        3.920665   -1.879196   -2.536417
     18          9           0        5.052965   -0.428269   -1.381726
     19          9           0        5.009931   -2.507357   -0.759116
     20          6           0        0.122355   -0.200825    0.174223
     21          8           0        0.056232   -1.410437   -0.010027
     22          7           0       -0.838342    0.494344    0.878591
     23          6           0       -1.981208   -0.254852    1.379420
     24          9           0       -1.539996   -1.424639    1.923444
     25          9           0       -2.523068    0.400624    2.447098
     26          6           0       -3.077553   -0.525374    0.321106
     27          9           0       -2.556088   -1.293006   -0.681000
     28          8           0       -3.448234    0.710317   -0.305028
     29          6           0       -4.595365    0.604671   -1.104545
     30          9           0       -5.685739    0.590077   -0.322183
     31          9           0       -4.653298    1.683154   -1.908409
     32          9           0       -4.554652   -0.498098   -1.867617
     33          6           0       -4.178337   -1.299734    1.058961
     34          9           0       -5.144673   -1.719400    0.205227
     35          9           0       -3.721989   -2.409052    1.679182
     36          9           0       -4.793795   -0.538485    1.991455
     37          1           0       -0.021020    3.525891    0.280205
     38          1           0        1.868151    2.464436   -0.697717
     39          1           0        0.408972    1.956590   -1.606415
 ---------------------------------------------------------------------

 SCF Done:  E(UCAM-B3LYP) =  -2682.20190407     A.U. after   28 cycles

 Alpha  occ. eigenvalues --  -24.87851 -24.87529 -24.87417 -24.86753 -24.86425
 Alpha  occ. eigenvalues --  -24.86222 -24.86116 -24.86108 -24.86024 -24.85936
 Alpha  occ. eigenvalues --  -24.85733 -24.85689 -24.85542 -24.85355 -24.85278
 Alpha  occ. eigenvalues --  -24.85257 -24.84860 -24.84835 -19.38040 -19.36456
 Alpha  occ. eigenvalues --  -19.36164 -19.29565 -14.65632 -14.59683 -14.56994
 Alpha  occ. eigenvalues --  -10.62555 -10.62234 -10.57895 -10.57850 -10.57706
 Alpha  occ. eigenvalues --  -10.57100 -10.55400 -10.52391 -10.52213 -10.51702
 Alpha  occ. eigenvalues --  -10.46903  -1.46353  -1.45682  -1.44311  -1.44275
 Alpha  occ. eigenvalues --   -1.43130  -1.42984  -1.38873  -1.37841  -1.37078
 Alpha  occ. eigenvalues --   -1.36173  -1.36149  -1.35906  -1.35866  -1.35620
 Alpha  occ. eigenvalues --   -1.34705  -1.34664  -1.34292  -1.34274  -1.32258
 Alpha  occ. eigenvalues --   -1.25914  -1.23888  -1.23606  -1.21542  -1.16165
 Alpha  occ. eigenvalues --   -1.13770  -0.97582  -0.96804  -0.93894  -0.90445
 Alpha  occ. eigenvalues --   -0.88737  -0.85299  -0.85186  -0.83922  -0.80973
 Alpha  occ. eigenvalues --   -0.80426  -0.78784  -0.77699  -0.76039  -0.75682
 Alpha  occ. eigenvalues --   -0.75105  -0.74300  -0.74041  -0.73451  -0.73245
 Alpha  occ. eigenvalues --   -0.72733  -0.72581  -0.71818  -0.71451  -0.71032
 Alpha  occ. eigenvalues --   -0.70902  -0.70214  -0.69680  -0.69211  -0.69018
 Alpha  occ. eigenvalues --   -0.68268  -0.67066  -0.66560  -0.65806  -0.63243
 Alpha  occ. eigenvalues --   -0.62942  -0.62158  -0.61840  -0.60491  -0.60081
 Alpha  occ. eigenvalues --   -0.59967  -0.59809  -0.59516  -0.59256  -0.59221
 Alpha  occ. eigenvalues --   -0.58883  -0.58646  -0.58232  -0.58069  -0.57783
 Alpha  occ. eigenvalues --   -0.57397  -0.57082  -0.56721  -0.56419  -0.56309
 Alpha  occ. eigenvalues --   -0.56288  -0.55483  -0.55213  -0.55057  -0.54548
 Alpha  occ. eigenvalues --   -0.54353  -0.54077  -0.53584  -0.53298  -0.53229
 Alpha  occ. eigenvalues --   -0.52904  -0.52831  -0.52440  -0.52414  -0.52281
 Alpha  occ. eigenvalues --   -0.51907  -0.51831  -0.51187  -0.51149  -0.50963
 Alpha  occ. eigenvalues --   -0.50486  -0.49297  -0.47888  -0.46224  -0.46198
 Alpha  occ. eigenvalues --   -0.43930  -0.42675
 Alpha virt. eigenvalues --   -0.07907  -0.01102   0.01540   0.02441   0.03075
 Alpha virt. eigenvalues --    0.05089   0.06913   0.09365   0.10378   0.11338
 Alpha virt. eigenvalues --    0.12129   0.12385   0.13827   0.14280   0.15204

  Beta  occ. eigenvalues --  -24.87849 -24.87505 -24.87417 -24.86749 -24.86423
  Beta  occ. eigenvalues --  -24.86222 -24.86116 -24.86108 -24.86024 -24.85936
  Beta  occ. eigenvalues --  -24.85733 -24.85689 -24.85541 -24.85355 -24.85277
  Beta  occ. eigenvalues --  -24.85257 -24.84860 -24.84835 -19.36980 -19.36455
  Beta  occ. eigenvalues --  -19.36164 -19.29567 -14.64336 -14.59717 -14.56896
  Beta  occ. eigenvalues --  -10.62555 -10.62234 -10.57895 -10.57851 -10.57705
  Beta  occ. eigenvalues --  -10.57106 -10.55639 -10.52394 -10.52210 -10.51708
  Beta  occ. eigenvalues --  -10.46904  -1.46353  -1.45682  -1.44308  -1.44267
  Beta  occ. eigenvalues --   -1.43125  -1.42965  -1.38872  -1.37837  -1.37077
  Beta  occ. eigenvalues --   -1.36148  -1.36141  -1.35906  -1.35863  -1.35618
  Beta  occ. eigenvalues --   -1.34705  -1.34658  -1.34292  -1.34273  -1.30865
  Beta  occ. eigenvalues --   -1.25311  -1.23879  -1.23601  -1.19741  -1.15930
  Beta  occ. eigenvalues --   -1.12795  -0.97532  -0.96638  -0.93486  -0.90318
  Beta  occ. eigenvalues --   -0.88376  -0.85268  -0.85184  -0.83834  -0.80841
  Beta  occ. eigenvalues --   -0.80085  -0.78646  -0.77629  -0.75996  -0.75571
  Beta  occ. eigenvalues --   -0.74927  -0.74046  -0.73786  -0.73275  -0.72899
  Beta  occ. eigenvalues --   -0.72505  -0.72000  -0.71546  -0.71251  -0.70985
  Beta  occ. eigenvalues --   -0.70683  -0.69817  -0.69607  -0.68857  -0.68803
  Beta  occ. eigenvalues --   -0.68194  -0.66705  -0.66325  -0.64436  -0.62923
  Beta  occ. eigenvalues --   -0.62335  -0.61566  -0.61098  -0.60319  -0.59988
  Beta  occ. eigenvalues --   -0.59899  -0.59711  -0.59443  -0.59188  -0.59132
  Beta  occ. eigenvalues --   -0.58808  -0.58383  -0.58190  -0.57939  -0.57752
  Beta  occ. eigenvalues --   -0.57335  -0.56987  -0.56679  -0.56385  -0.56275
  Beta  occ. eigenvalues --   -0.56223  -0.55420  -0.55109  -0.54930  -0.54356
  Beta  occ. eigenvalues --   -0.54215  -0.54072  -0.53523  -0.53285  -0.53218
  Beta  occ. eigenvalues --   -0.52859  -0.52807  -0.52429  -0.52375  -0.51922
  Beta  occ. eigenvalues --   -0.51828  -0.51174  -0.51148  -0.50952  -0.49418
  Beta  occ. eigenvalues --   -0.48303  -0.47882  -0.46184  -0.45314  -0.43799
  Beta  occ. eigenvalues --   -0.42116
  Beta virt. eigenvalues --   -0.27503  -0.06542  -0.00630   0.01602   0.02486
  Beta virt. eigenvalues --    0.03406   0.05201   0.07021   0.09419   0.10826
  Beta virt. eigenvalues --    0.11786   0.12440   0.12642   0.13937   0.14317

 Mulliken charges and spin densities:
               1          2
     1  O   -0.315447   0.409401
     2  C    0.855141  -0.141678
     3  N   -0.367705   0.597009
     4  C    0.051008  -0.018687
     5  N   -0.589679   0.046379
     6  C    0.775270  -0.002661
     7  F   -0.239456   0.000890
     8  F   -0.269279   0.000266
     9  C    0.432467   0.001222
    10  F   -0.251648   0.000388
    11  O   -0.496690  -0.000030
    12  C    0.984998   0.000027
    13  F   -0.233085  -0.000001
    14  F   -0.249244   0.000006
    15  F   -0.231389   0.000005
    16  C    0.812753   0.000240
    17  F   -0.239753  -0.000003
    18  F   -0.248320   0.000020
    19  F   -0.249256   0.000169
    20  C    0.874437  -0.003691
    21  O   -0.445786  -0.000092
    22  N   -0.641169  -0.007233
    23  C    0.755954  -0.000672
    24  F   -0.238433   0.000777
    25  F   -0.243628   0.004821
    26  C    0.440831  -0.000709
    27  F   -0.250061   0.000001
    28  O   -0.523222   0.000172
    29  C    1.002864   0.000008
    30  F   -0.236884   0.000027
    31  F   -0.237368   0.000000
    32  F   -0.237562   0.000020
    33  C    0.822632  -0.000248
    34  F   -0.253296  -0.000042
    35  F   -0.238357   0.000039
    36  F   -0.242565   0.000066
    37  H    0.406803  -0.016440
    38  H    0.266835   0.038279
    39  H    0.287289   0.091957
 Sum of Mulliken charges =   1.00000   1.00000

 Dipole moment (field-independent basis, Debye):
    X=              1.8110    Y=             12.4987    Z=             -0.6770  Tot=             12.6474
 Quadrupole moment (field-independent basis, Debye-Ang):
   XX=           -178.3890   YY=           -158.9943   ZZ=           -183.0404
   XY=              6.3119   XZ=              1.2569   YZ=             -3.0101

 Normal termination of Gaussian 09 at Sun Mar  3 18:08:15 2024.
