 Gaussian 09, Revision D.01,
 Gaussian 09:  ES64L-G09RevD.01 24-Apr-2013

 ----------------------------------------------------------------------
 #p CAM-B3LYP/6-31G(d,p) SCRF=(PCM,Solvent=Generic,Read) NoSymm out=wfn
 ----------------------------------------------------------------------

 ------------------
 Title A891690741_0
 ------------------
 Symbolic Z-matrix:
 Charge =  0 Multiplicity = 1

                          Input orientation:
 ---------------------------------------------------------------------
 Center     Atomic      Atomic             Coordinates (Angstroms)
 Number     Number       Type             X           Y           Z
 ---------------------------------------------------------------------
      1          6           0       -3.981081   -3.588604   -1.260892
      2          6           0       -3.637207   -2.984111    0.091024
      3          6           0       -2.518125   -1.950619   -0.026401
      4          6           0       -2.175583   -1.344615    1.338371
      5          7           0       -1.102116   -0.355276    1.238617
      6          6           0       -1.442777    0.940282    0.908495
      7          8           0       -2.613370    1.286144    0.741177
      8          7           0       -0.389088    1.813761    0.733468
      9          6           0       -0.690638    3.173143    0.283853
     10          6           0       -0.803483    3.254649   -1.240843
     11          6           0       -1.112136    4.670085   -1.700158
     12          6           0        0.933351    1.425050    0.799534
     13          8           0        1.836491    2.162092    0.403071
     14          7           0        1.175970    0.168504    1.293446
     15          6           0        2.559078   -0.278830    1.356396
     16          9           0        3.335215    0.753081    1.801255
     17          9           0        2.670859   -1.201542    2.356207
     18          6           0        3.140662   -0.845386    0.033613
     19          9           0        2.484776   -1.997725   -0.292154
     20          8           0        2.866036    0.057746   -1.043375
     21          6           0        3.560543   -0.252996   -2.221208
     22          9           0        2.989382    0.414772   -3.240956
     23          9           0        4.836954    0.145927   -2.105157
     24          9           0        3.506623   -1.567716   -2.483358
     25          6           0        4.613274   -1.154429    0.338695
     26          9           0        5.332329   -0.029895    0.553840
     27          9           0        4.773314   -1.949122    1.419154
     28          9           0        5.208323   -1.800893   -0.693804
     29          6           0        0.202643   -0.795987    1.317036
     30          8           0        0.471350   -1.995343    1.373873
     31          1           0       -4.318645   -2.817653   -1.960913
     32          1           0       -4.783621   -4.325042   -1.153727
     33          1           0       -3.113074   -4.093070   -1.697270
     34          1           0       -4.533581   -2.515901    0.514041
     35          1           0       -3.334537   -3.784451    0.776223
     36          1           0       -1.626157   -2.420019   -0.459149
     37          1           0       -2.820500   -1.156541   -0.720143
     38          1           0       -1.871275   -2.137052    2.032690
     39          1           0       -3.064977   -0.868903    1.768643
     40          1           0        0.095505    3.851552    0.636633
     41          1           0       -1.628085    3.505951    0.745305
     42          1           0        0.130824    2.919487   -1.706311
     43          1           0       -1.590809    2.579726   -1.596531
     44          1           0       -1.188918    4.706316   -2.791335
     45          1           0       -0.322902    5.363199   -1.391955
     46          1           0       -2.060814    5.020252   -1.281022
 ---------------------------------------------------------------------

 SCF Done:  E(RCAM-B3LYP) =  -1906.27783516     A.U. after   13 cycles

 Alpha  occ. eigenvalues --  -24.83569 -24.83464 -24.83343 -24.83206 -24.82845
 Alpha  occ. eigenvalues --  -24.82581 -24.82494 -24.82433 -24.82409 -19.32860
 Alpha  occ. eigenvalues --  -19.22913 -19.22819 -19.22433 -14.51823 -14.49205
 Alpha  occ. eigenvalues --  -14.49188 -10.59493 -10.55210 -10.52831 -10.48722
 Alpha  occ. eigenvalues --  -10.44708 -10.44671 -10.43604 -10.30826 -10.30806
 Alpha  occ. eigenvalues --  -10.26111 -10.25920 -10.25514 -10.24981 -10.24478
 Alpha  occ. eigenvalues --   -1.43153  -1.41581  -1.38605  -1.35375  -1.33467
 Alpha  occ. eigenvalues --   -1.33216  -1.32573  -1.31982  -1.31141  -1.21453
 Alpha  occ. eigenvalues --   -1.20388  -1.16353  -1.16084  -1.08417  -1.06111
 Alpha  occ. eigenvalues --   -1.04611  -0.93220  -0.89159  -0.87807  -0.84440
 Alpha  occ. eigenvalues --   -0.82662  -0.81787  -0.80495  -0.77637  -0.76847
 Alpha  occ. eigenvalues --   -0.74926  -0.72999  -0.72834  -0.72178  -0.71288
 Alpha  occ. eigenvalues --   -0.70308  -0.69486  -0.68420  -0.68090  -0.67205
 Alpha  occ. eigenvalues --   -0.66451  -0.66219  -0.66141  -0.64181  -0.60987
 Alpha  occ. eigenvalues --   -0.59734  -0.58564  -0.57411  -0.56995  -0.56047
 Alpha  occ. eigenvalues --   -0.55859  -0.55594  -0.55473  -0.55143  -0.54877
 Alpha  occ. eigenvalues --   -0.54629  -0.54358  -0.53802  -0.53626  -0.53066
 Alpha  occ. eigenvalues --   -0.52781  -0.52705  -0.52019  -0.51689  -0.51561
 Alpha  occ. eigenvalues --   -0.51193  -0.50476  -0.50250  -0.49746  -0.49570
 Alpha  occ. eigenvalues --   -0.48931  -0.48771  -0.48490  -0.48334  -0.47773
 Alpha  occ. eigenvalues --   -0.45842  -0.45610  -0.45226  -0.44363  -0.43605
 Alpha  occ. eigenvalues --   -0.42297  -0.41803  -0.41545  -0.40338  -0.39920
 Alpha  occ. eigenvalues --   -0.39207  -0.38703  -0.38369  -0.37319  -0.35427
 Alpha  occ. eigenvalues --   -0.34809  -0.34347
 Alpha virt. eigenvalues --    0.01905   0.02707   0.06067   0.09463   0.12069
 Alpha virt. eigenvalues --    0.14106   0.14513   0.14854   0.16585   0.16912
 Alpha virt. eigenvalues --    0.17566   0.17995   0.18146   0.18644   0.19570

 Mulliken charges:
               1
     1  C   -0.322802
     2  C   -0.183897
     3  C   -0.179916
     4  C   -0.057432
     5  N   -0.575219
     6  C    0.824728
     7  O   -0.529093
     8  N   -0.575544
     9  C   -0.049314
    10  C   -0.186937
    11  C   -0.328142
    12  C    0.835015
    13  O   -0.511797
    14  N   -0.635824
    15  C    0.760285
    16  F   -0.257262
    17  F   -0.260219
    18  C    0.437483
    19  F   -0.255745
    20  O   -0.505645
    21  C    0.995476
    22  F   -0.240559
    23  F   -0.243615
    24  F   -0.243449
    25  C    0.811639
    26  F   -0.246531
    27  F   -0.244302
    28  F   -0.260846
    29  C    0.821014
    30  O   -0.510805
    31  H    0.107641
    32  H    0.105390
    33  H    0.108283
    34  H    0.103814
    35  H    0.104503
    36  H    0.114679
    37  H    0.112392
    38  H    0.146081
    39  H    0.147726
    40  H    0.145794
    41  H    0.147369
    42  H    0.118871
    43  H    0.115668
    44  H    0.114415
    45  H    0.113760
    46  H    0.112869
 Sum of Mulliken charges =   0.00000

 Dipole moment (field-independent basis, Debye):
    X=             -2.8592    Y=              0.8126    Z=             -0.1865  Tot=              2.9783
 Quadrupole moment (field-independent basis, Debye-Ang):
   XX=           -178.4233   YY=           -167.1424   ZZ=           -164.3972
   XY=              2.9819   XZ=             -2.8148   YZ=              1.1360

 Normal termination of Gaussian 09 at Sun Mar  3 18:03:54 2024.
