 Gaussian 09, Revision D.01,
 Gaussian 09:  ES64L-G09RevD.01 24-Apr-2013

 ----------------------------------------------------------------------
 #p CAM-B3LYP/6-31G(d,p) SCRF=(PCM,Solvent=Generic,Read) NoSymm out=wfn
 ----------------------------------------------------------------------

 -------------------
 Title A891690741_p1
 -------------------
 Symbolic Z-matrix:
 Charge =  1 Multiplicity = 2

                          Input orientation:
 ---------------------------------------------------------------------
 Center     Atomic      Atomic             Coordinates (Angstroms)
 Number     Number       Type             X           Y           Z
 ---------------------------------------------------------------------
      1          6           0       -3.981081   -3.588604   -1.260892
      2          6           0       -3.637207   -2.984111    0.091024
      3          6           0       -2.518125   -1.950619   -0.026401
      4          6           0       -2.175583   -1.344615    1.338371
      5          7           0       -1.102116   -0.355276    1.238617
      6          6           0       -1.442777    0.940282    0.908495
      7          8           0       -2.613370    1.286144    0.741177
      8          7           0       -0.389088    1.813761    0.733468
      9          6           0       -0.690638    3.173143    0.283853
     10          6           0       -0.803483    3.254649   -1.240843
     11          6           0       -1.112136    4.670085   -1.700158
     12          6           0        0.933351    1.425050    0.799534
     13          8           0        1.836491    2.162092    0.403071
     14          7           0        1.175970    0.168504    1.293446
     15          6           0        2.559078   -0.278830    1.356396
     16          9           0        3.335215    0.753081    1.801255
     17          9           0        2.670859   -1.201542    2.356207
     18          6           0        3.140662   -0.845386    0.033613
     19          9           0        2.484776   -1.997725   -0.292154
     20          8           0        2.866036    0.057746   -1.043375
     21          6           0        3.560543   -0.252996   -2.221208
     22          9           0        2.989382    0.414772   -3.240956
     23          9           0        4.836954    0.145927   -2.105157
     24          9           0        3.506623   -1.567716   -2.483358
     25          6           0        4.613274   -1.154429    0.338695
     26          9           0        5.332329   -0.029895    0.553840
     27          9           0        4.773314   -1.949122    1.419154
     28          9           0        5.208323   -1.800893   -0.693804
     29          6           0        0.202643   -0.795987    1.317036
     30          8           0        0.471350   -1.995343    1.373873
     31          1           0       -4.318645   -2.817653   -1.960913
     32          1           0       -4.783621   -4.325042   -1.153727
     33          1           0       -3.113074   -4.093070   -1.697270
     34          1           0       -4.533581   -2.515901    0.514041
     35          1           0       -3.334537   -3.784451    0.776223
     36          1           0       -1.626157   -2.420019   -0.459149
     37          1           0       -2.820500   -1.156541   -0.720143
     38          1           0       -1.871275   -2.137052    2.032690
     39          1           0       -3.064977   -0.868903    1.768643
     40          1           0        0.095505    3.851552    0.636633
     41          1           0       -1.628085    3.505951    0.745305
     42          1           0        0.130824    2.919487   -1.706311
     43          1           0       -1.590809    2.579726   -1.596531
     44          1           0       -1.188918    4.706316   -2.791335
     45          1           0       -0.322902    5.363199   -1.391955
     46          1           0       -2.060814    5.020252   -1.281022
 ---------------------------------------------------------------------

 SCF Done:  E(UCAM-B3LYP) =  -1905.96457344     A.U. after   51 cycles

 Alpha  occ. eigenvalues --  -24.86578 -24.86460 -24.85862 -24.85748 -24.85617
 Alpha  occ. eigenvalues --  -24.85423 -24.85402 -24.85039 -24.84710 -19.35875
 Alpha  occ. eigenvalues --  -19.33896 -19.31182 -19.29999 -14.63891 -14.59826
 Alpha  occ. eigenvalues --  -14.58653 -10.61852 -10.57651 -10.57302 -10.53515
 Alpha  occ. eigenvalues --  -10.52079 -10.51941 -10.51820 -10.38947 -10.36745
 Alpha  occ. eigenvalues --  -10.32745 -10.30921 -10.29786 -10.28085 -10.27630
 Alpha  occ. eigenvalues --   -1.45376  -1.43957  -1.42471  -1.38645  -1.35630
 Alpha  occ. eigenvalues --   -1.35612  -1.35302  -1.34386  -1.34112  -1.30561
 Alpha  occ. eigenvalues --   -1.25492  -1.24239  -1.23310  -1.17209  -1.15164
 Alpha  occ. eigenvalues --   -1.13904  -0.97190  -0.95736  -0.93572  -0.90173
 Alpha  occ. eigenvalues --   -0.89154  -0.87276  -0.84852  -0.83581  -0.81940
 Alpha  occ. eigenvalues --   -0.81343  -0.79077  -0.78110  -0.75715  -0.75099
 Alpha  occ. eigenvalues --   -0.73152  -0.72824  -0.72510  -0.71767  -0.70929
 Alpha  occ. eigenvalues --   -0.70716  -0.69636  -0.69337  -0.68443  -0.67996
 Alpha  occ. eigenvalues --   -0.66028  -0.63904  -0.63146  -0.62587  -0.61984
 Alpha  occ. eigenvalues --   -0.61260  -0.60859  -0.60442  -0.59547  -0.59256
 Alpha  occ. eigenvalues --   -0.59065  -0.58602  -0.58407  -0.57993  -0.57470
 Alpha  occ. eigenvalues --   -0.57404  -0.56689  -0.56047  -0.55460  -0.54878
 Alpha  occ. eigenvalues --   -0.54715  -0.54018  -0.53919  -0.53708  -0.53170
 Alpha  occ. eigenvalues --   -0.52905  -0.52500  -0.52093  -0.51515  -0.51036
 Alpha  occ. eigenvalues --   -0.50928  -0.50007  -0.49262  -0.49104  -0.48329
 Alpha  occ. eigenvalues --   -0.47516  -0.47395  -0.47064  -0.46114  -0.45577
 Alpha  occ. eigenvalues --   -0.45007  -0.44414  -0.43914  -0.43403  -0.43019
 Alpha  occ. eigenvalues --   -0.42677  -0.42523
 Alpha virt. eigenvalues --   -0.06232  -0.05269   0.02296   0.03456   0.06143
 Alpha virt. eigenvalues --    0.08933   0.09669   0.10923   0.11192   0.12018
 Alpha virt. eigenvalues --    0.12768   0.13615   0.14051   0.14679   0.15121

  Beta  occ. eigenvalues --  -24.86572 -24.86456 -24.85860 -24.85747 -24.85617
  Beta  occ. eigenvalues --  -24.85423 -24.85402 -24.85039 -24.84710 -19.35873
  Beta  occ. eigenvalues --  -19.33317 -19.30866 -19.30100 -14.62873 -14.59275
  Beta  occ. eigenvalues --  -14.58704 -10.61852 -10.57651 -10.57302 -10.53708
  Beta  occ. eigenvalues --  -10.52081 -10.52052 -10.51910 -10.38904 -10.36729
  Beta  occ. eigenvalues --  -10.32589 -10.30843 -10.29760 -10.28076 -10.27604
  Beta  occ. eigenvalues --   -1.45375  -1.43956  -1.42465  -1.38641  -1.35621
  Beta  occ. eigenvalues --   -1.35611  -1.35300  -1.34383  -1.34112  -1.29829
  Beta  occ. eigenvalues --   -1.24733  -1.23925  -1.23249  -1.16313  -1.14230
  Beta  occ. eigenvalues --   -1.13026  -0.97080  -0.95367  -0.93255  -0.90047
  Beta  occ. eigenvalues --   -0.88958  -0.87043  -0.84812  -0.83323  -0.81699
  Beta  occ. eigenvalues --   -0.81105  -0.78947  -0.77776  -0.75654  -0.75074
  Beta  occ. eigenvalues --   -0.73085  -0.72585  -0.72146  -0.71339  -0.70776
  Beta  occ. eigenvalues --   -0.70648  -0.69615  -0.69206  -0.67973  -0.67474
  Beta  occ. eigenvalues --   -0.65369  -0.63233  -0.62603  -0.62493  -0.61173
  Beta  occ. eigenvalues --   -0.60399  -0.60348  -0.59921  -0.59279  -0.59136
  Beta  occ. eigenvalues --   -0.58842  -0.58533  -0.58221  -0.57903  -0.57439
  Beta  occ. eigenvalues --   -0.57317  -0.56555  -0.55994  -0.55113  -0.54742
  Beta  occ. eigenvalues --   -0.54337  -0.53865  -0.53625  -0.53372  -0.52916
  Beta  occ. eigenvalues --   -0.52697  -0.52320  -0.52069  -0.51462  -0.50997
  Beta  occ. eigenvalues --   -0.50527  -0.49864  -0.48867  -0.48138  -0.47497
  Beta  occ. eigenvalues --   -0.47373  -0.47147  -0.45644  -0.45308  -0.45171
  Beta  occ. eigenvalues --   -0.44046  -0.43718  -0.43223  -0.42872  -0.42198
  Beta  occ. eigenvalues --   -0.40085
  Beta virt. eigenvalues --   -0.28206  -0.05548  -0.04252   0.02306   0.04499
  Beta virt. eigenvalues --    0.06300   0.09267   0.09787   0.11242   0.11285
  Beta virt. eigenvalues --    0.12128   0.12875   0.13696   0.14164   0.14693

 Mulliken charges and spin densities:
               1          2
     1  C   -0.329061   0.011935
     2  C   -0.192118   0.014518
     3  C   -0.201436   0.081237
     4  C   -0.097630   0.015270
     5  N   -0.469716   0.460570
     6  C    0.853785  -0.054651
     7  O   -0.461634  -0.034975
     8  N   -0.524263   0.250607
     9  C   -0.080262   0.003260
    10  C   -0.200923   0.038784
    11  C   -0.329835   0.005702
    12  C    0.875531  -0.063003
    13  O   -0.423471   0.124287
    14  N   -0.640135  -0.014192
    15  C    0.762005  -0.000955
    16  F   -0.243978   0.000871
    17  F   -0.248484   0.001381
    18  C    0.439406  -0.000518
    19  F   -0.253684   0.000500
    20  O   -0.512673   0.000493
    21  C    1.000818   0.000016
    22  F   -0.237320   0.000001
    23  F   -0.238352   0.000001
    24  F   -0.239815   0.000033
    25  C    0.819930  -0.000117
    26  F   -0.242119   0.000001
    27  F   -0.240384   0.000017
    28  F   -0.254478  -0.000039
    29  C    0.869533  -0.110144
    30  O   -0.386256   0.228067
    31  H    0.122101  -0.000465
    32  H    0.132458   0.006966
    33  H    0.122338  -0.000489
    34  H    0.130024  -0.000304
    35  H    0.129892  -0.000658
    36  H    0.152615  -0.001331
    37  H    0.153169  -0.002979
    38  H    0.210535   0.009642
    39  H    0.215818   0.015040
    40  H    0.190311   0.004646
    41  H    0.191966   0.008072
    42  H    0.142038   0.000119
    43  H    0.138253  -0.001413
    44  H    0.137112   0.004213
    45  H    0.129725  -0.000278
    46  H    0.128667   0.000261
 Sum of Mulliken charges =   1.00000   1.00000

 Dipole moment (field-independent basis, Debye):
    X=             -6.2331    Y=              1.2470    Z=              2.9584  Tot=              7.0113
 Quadrupole moment (field-independent basis, Debye-Ang):
   XX=           -153.5289   YY=           -139.1597   ZZ=           -152.7721
   XY=              8.3651   XZ=             -3.8559   YZ=             -1.8091

 Normal termination of Gaussian 09 at Sun Mar  3 18:06:12 2024.
