 Gaussian 09, Revision D.01,
 Gaussian 09:  ES64L-G09RevD.01 24-Apr-2013

 ----------------------------------------------------------------------
 #p CAM-B3LYP/6-31G(d,p) SCRF=(PCM,Solvent=Generic,Read) NoSymm out=wfn
 ----------------------------------------------------------------------

 ------------------
 Title A153226990_0
 ------------------
 Symbolic Z-matrix:
 Charge =  0 Multiplicity = 1

                          Input orientation:
 ---------------------------------------------------------------------
 Center     Atomic      Atomic             Coordinates (Angstroms)
 Number     Number       Type             X           Y           Z
 ---------------------------------------------------------------------
      1          6           0        2.178403    2.119294    1.210781
      2          7           0        1.757101    0.882432    0.573074
      3          6           0        2.735133    0.048697    0.077470
      4          8           0        3.933707    0.315571    0.171836
      5          7           0        2.281845   -1.075057   -0.575533
      6          6           0        3.269371   -1.937315   -1.203055
      7          6           0        0.953977   -1.267584   -0.897918
      8          8           0        0.632092   -2.054782   -1.787684
      9          7           0        0.038567   -0.504558   -0.203833
     10          6           0       -1.361039   -0.771348   -0.515523
     11          9           0       -1.517889   -2.136559   -0.543583
     12          9           0       -1.589174   -0.372473   -1.801521
     13          6           0       -2.541431   -0.259876    0.372415
     14          9           0       -3.696493   -0.873395   -0.066901
     15          8           0       -2.871505    1.127555    0.405082
     16          6           0       -3.112775    1.677659   -0.864851
     17          9           0       -1.950537    1.924780   -1.494486
     18          9           0       -3.767329    2.845001   -0.706797
     19          9           0       -3.868288    0.865406   -1.622433
     20          6           0       -2.294970   -0.788060    1.786447
     21          9           0       -1.151915   -0.316985    2.336764
     22          9           0       -2.204025   -2.138074    1.823385
     23          9           0       -3.301449   -0.444193    2.628248
     24          6           0        0.416728    0.693633    0.331284
     25          8           0       -0.403380    1.572121    0.584942
     26          1           0        2.321501    2.875854    0.432682
     27          1           0        1.420707    2.473224    1.916312
     28          1           0        3.120683    1.980538    1.749225
     29          1           0        4.176847   -1.995677   -0.594539
     30          1           0        3.523516   -1.518126   -2.181927
     31          1           0        2.872021   -2.947702   -1.339364
 ---------------------------------------------------------------------

 SCF Done:  E(RCAM-B3LYP) =  -1709.80451343     A.U. after   13 cycles

 Alpha  occ. eigenvalues --  -24.83591 -24.83256 -24.82895 -24.82890 -24.82748
 Alpha  occ. eigenvalues --  -24.82368 -24.82295 -24.82269 -24.82097 -19.32023
 Alpha  occ. eigenvalues --  -19.23343 -19.23198 -19.22674 -14.52316 -14.49773
 Alpha  occ. eigenvalues --  -14.49652 -10.58889 -10.55342 -10.53168 -10.49091
 Alpha  occ. eigenvalues --  -10.45026 -10.45007 -10.43814 -10.30817 -10.30781
 Alpha  occ. eigenvalues --   -1.42348  -1.41767  -1.38443  -1.34739  -1.32778
 Alpha  occ. eigenvalues --   -1.32524  -1.32427  -1.32183  -1.31082  -1.21891
 Alpha  occ. eigenvalues --   -1.19728  -1.16915  -1.16377  -1.08807  -1.06493
 Alpha  occ. eigenvalues --   -1.05012  -0.93311  -0.85777  -0.82966  -0.82830
 Alpha  occ. eigenvalues --   -0.80536  -0.78901  -0.75743  -0.74806  -0.73043
 Alpha  occ. eigenvalues --   -0.71648  -0.71130  -0.69775  -0.69384  -0.68711
 Alpha  occ. eigenvalues --   -0.67467  -0.66224  -0.65874  -0.64749  -0.61975
 Alpha  occ. eigenvalues --   -0.59813  -0.59302  -0.57101  -0.56447  -0.56364
 Alpha  occ. eigenvalues --   -0.55802  -0.55605  -0.55351  -0.55167  -0.54789
 Alpha  occ. eigenvalues --   -0.54301  -0.54072  -0.53174  -0.53011  -0.52822
 Alpha  occ. eigenvalues --   -0.52378  -0.51833  -0.51352  -0.51012  -0.50792
 Alpha  occ. eigenvalues --   -0.50344  -0.49885  -0.49487  -0.48665  -0.48037
 Alpha  occ. eigenvalues --   -0.47795  -0.47555  -0.47493  -0.47215  -0.45561
 Alpha  occ. eigenvalues --   -0.43648  -0.39693  -0.39161  -0.37931  -0.36093
 Alpha  occ. eigenvalues --   -0.35206  -0.35112
 Alpha virt. eigenvalues --    0.01290   0.02569   0.05989   0.08541   0.12238
 Alpha virt. eigenvalues --    0.13812   0.15363   0.16933   0.17385   0.17416
 Alpha virt. eigenvalues --    0.18116   0.19864   0.20115   0.21870   0.22410

 Mulliken charges:
               1
     1  C   -0.182028
     2  N   -0.565170
     3  C    0.814154
     4  O   -0.521233
     5  N   -0.563580
     6  C   -0.180399
     7  C    0.820017
     8  O   -0.495553
     9  N   -0.616186
    10  C    0.776557
    11  F   -0.272822
    12  F   -0.264205
    13  C    0.413599
    14  F   -0.277004
    15  O   -0.489900
    16  C    0.998772
    17  F   -0.244422
    18  F   -0.243500
    19  F   -0.247085
    20  C    0.805837
    21  F   -0.240694
    22  F   -0.243735
    23  F   -0.250392
    24  C    0.828569
    25  O   -0.518893
    26  H    0.156437
    27  H    0.161845
    28  H    0.163523
    29  H    0.162009
    30  H    0.155702
    31  H    0.159780
 Sum of Mulliken charges =   0.00000

 Dipole moment (field-independent basis, Debye):
    X=              3.0117    Y=              0.3142    Z=              1.1647  Tot=              3.2443
 Quadrupole moment (field-independent basis, Debye-Ang):
   XX=           -140.9570   YY=           -134.6805   ZZ=           -135.9016
   XY=             -2.4008   XZ=             -0.8971   YZ=             -2.0900

 Normal termination of Gaussian 09 at Sun Mar  3 17:24:12 2024.
