 Gaussian 09, Revision D.01,
 Gaussian 09:  ES64L-G09RevD.01 24-Apr-2013

 ----------------------------------------------------------------------
 #p CAM-B3LYP/6-31G(d,p) SCRF=(PCM,Solvent=Generic,Read) NoSymm out=wfn
 ----------------------------------------------------------------------

 -------------------
 Title A153226990_p1
 -------------------
 Symbolic Z-matrix:
 Charge =  1 Multiplicity = 2

                          Input orientation:
 ---------------------------------------------------------------------
 Center     Atomic      Atomic             Coordinates (Angstroms)
 Number     Number       Type             X           Y           Z
 ---------------------------------------------------------------------
      1          6           0        2.178403    2.119294    1.210781
      2          7           0        1.757101    0.882432    0.573074
      3          6           0        2.735133    0.048697    0.077470
      4          8           0        3.933707    0.315571    0.171836
      5          7           0        2.281845   -1.075057   -0.575533
      6          6           0        3.269371   -1.937315   -1.203055
      7          6           0        0.953977   -1.267584   -0.897918
      8          8           0        0.632092   -2.054782   -1.787684
      9          7           0        0.038567   -0.504558   -0.203833
     10          6           0       -1.361039   -0.771348   -0.515523
     11          9           0       -1.517889   -2.136559   -0.543583
     12          9           0       -1.589174   -0.372473   -1.801521
     13          6           0       -2.541431   -0.259876    0.372415
     14          9           0       -3.696493   -0.873395   -0.066901
     15          8           0       -2.871505    1.127555    0.405082
     16          6           0       -3.112775    1.677659   -0.864851
     17          9           0       -1.950537    1.924780   -1.494486
     18          9           0       -3.767329    2.845001   -0.706797
     19          9           0       -3.868288    0.865406   -1.622433
     20          6           0       -2.294970   -0.788060    1.786447
     21          9           0       -1.151915   -0.316985    2.336764
     22          9           0       -2.204025   -2.138074    1.823385
     23          9           0       -3.301449   -0.444193    2.628248
     24          6           0        0.416728    0.693633    0.331284
     25          8           0       -0.403380    1.572121    0.584942
     26          1           0        2.321501    2.875854    0.432682
     27          1           0        1.420707    2.473224    1.916312
     28          1           0        3.120683    1.980538    1.749225
     29          1           0        4.176847   -1.995677   -0.594539
     30          1           0        3.523516   -1.518126   -2.181927
     31          1           0        2.872021   -2.947702   -1.339364
 ---------------------------------------------------------------------

 SCF Done:  E(UCAM-B3LYP) =  -1709.47613668     A.U. after   65 cycles

 Alpha  occ. eigenvalues --  -24.86682 -24.86603 -24.86353 -24.85783 -24.85145
 Alpha  occ. eigenvalues --  -24.85144 -24.85101 -24.85058 -24.85006 -19.42531
 Alpha  occ. eigenvalues --  -19.35025 -19.33897 -19.31100 -14.60591 -14.60362
 Alpha  occ. eigenvalues --  -14.59658 -10.61378 -10.58068 -10.57771 -10.55515
 Alpha  occ. eigenvalues --  -10.53575 -10.52502 -10.52382 -10.37150 -10.36960
 Alpha  occ. eigenvalues --   -1.44929  -1.44354  -1.42600  -1.37578  -1.35817
 Alpha  occ. eigenvalues --   -1.35395  -1.34942  -1.34590  -1.34391  -1.33802
 Alpha  occ. eigenvalues --   -1.28803  -1.25508  -1.22632  -1.18766  -1.15479
 Alpha  occ. eigenvalues --   -1.14498  -0.97133  -0.92437  -0.90710  -0.90459
 Alpha  occ. eigenvalues --   -0.84837  -0.83151  -0.83052  -0.82382  -0.78760
 Alpha  occ. eigenvalues --   -0.76156  -0.74684  -0.73202  -0.72320  -0.71582
 Alpha  occ. eigenvalues --   -0.71405  -0.70079  -0.69858  -0.69820  -0.68984
 Alpha  occ. eigenvalues --   -0.67871  -0.65663  -0.64366  -0.63575  -0.63259
 Alpha  occ. eigenvalues --   -0.62553  -0.62058  -0.61071  -0.59798  -0.59209
 Alpha  occ. eigenvalues --   -0.58903  -0.58447  -0.57716  -0.57458  -0.56945
 Alpha  occ. eigenvalues --   -0.56654  -0.55920  -0.55283  -0.55064  -0.54676
 Alpha  occ. eigenvalues --   -0.54457  -0.54423  -0.54185  -0.53753  -0.53467
 Alpha  occ. eigenvalues --   -0.53108  -0.52540  -0.52004  -0.51430  -0.51163
 Alpha  occ. eigenvalues --   -0.49443  -0.48167  -0.47582  -0.46907  -0.45635
 Alpha  occ. eigenvalues --   -0.44299  -0.43480
 Alpha virt. eigenvalues --   -0.08746  -0.05342   0.01565   0.02175   0.06914
 Alpha virt. eigenvalues --    0.08783   0.09482   0.10585   0.11473   0.12654
 Alpha virt. eigenvalues --    0.13851   0.14610   0.16376   0.16947   0.17233

  Beta  occ. eigenvalues --  -24.86664 -24.86602 -24.86346 -24.85783 -24.85145
  Beta  occ. eigenvalues --  -24.85141 -24.85101 -24.85058 -24.85006 -19.40872
  Beta  occ. eigenvalues --  -19.35015 -19.33401 -19.30949 -14.60335 -14.60098
  Beta  occ. eigenvalues --  -14.59612 -10.61378 -10.58069 -10.57774 -10.55737
  Beta  occ. eigenvalues --  -10.53642 -10.52546 -10.52380 -10.37142 -10.36951
  Beta  occ. eigenvalues --   -1.44925  -1.44353  -1.42578  -1.37575  -1.35798
  Beta  occ. eigenvalues --   -1.35389  -1.34938  -1.34589  -1.34386  -1.31677
  Beta  occ. eigenvalues --   -1.27604  -1.24980  -1.22599  -1.17614  -1.15001
  Beta  occ. eigenvalues --   -1.13904  -0.97096  -0.92306  -0.90455  -0.90075
  Beta  occ. eigenvalues --   -0.84611  -0.83132  -0.82630  -0.81850  -0.78639
  Beta  occ. eigenvalues --   -0.76076  -0.74654  -0.73161  -0.72309  -0.71437
  Beta  occ. eigenvalues --   -0.71052  -0.69983  -0.69547  -0.68941  -0.68224
  Beta  occ. eigenvalues --   -0.67766  -0.65177  -0.63324  -0.63003  -0.62744
  Beta  occ. eigenvalues --   -0.62218  -0.61610  -0.60286  -0.59710  -0.59112
  Beta  occ. eigenvalues --   -0.58480  -0.58368  -0.57481  -0.56929  -0.56512
  Beta  occ. eigenvalues --   -0.56286  -0.55558  -0.55035  -0.54682  -0.54402
  Beta  occ. eigenvalues --   -0.54298  -0.54075  -0.53709  -0.53361  -0.53097
  Beta  occ. eigenvalues --   -0.52534  -0.51999  -0.51365  -0.51151  -0.48930
  Beta  occ. eigenvalues --   -0.48488  -0.47028  -0.45692  -0.44705  -0.43154
  Beta  occ. eigenvalues --   -0.41340
  Beta virt. eigenvalues --   -0.30005  -0.07634  -0.05040   0.01964   0.02210
  Beta virt. eigenvalues --    0.07001   0.08880   0.09618   0.10751   0.11554
  Beta virt. eigenvalues --    0.12834   0.13865   0.14691   0.16424   0.17055

 Mulliken charges and spin densities:
               1          2
     1  C   -0.216813   0.003858
     2  N   -0.541399   0.125553
     3  C    0.917850  -0.125632
     4  O   -0.244537   0.637718
     5  N   -0.541571   0.124543
     6  C   -0.217699   0.001306
     7  C    0.886681  -0.044549
     8  O   -0.380369   0.187402
     9  N   -0.613668   0.022429
    10  C    0.776420  -0.001888
    11  F   -0.259335   0.004036
    12  F   -0.248864   0.002099
    13  C    0.413367   0.000043
    14  F   -0.264430   0.000102
    15  O   -0.486523   0.003016
    16  C    1.003785  -0.000236
    17  F   -0.247319   0.000510
    18  F   -0.236670   0.000016
    19  F   -0.241776   0.000039
    20  C    0.811566  -0.000031
    21  F   -0.243556   0.000197
    22  F   -0.238707   0.000048
    23  F   -0.241961   0.000015
    24  C    0.873499  -0.026505
    25  O   -0.443777   0.058830
    26  H    0.206306   0.009412
    27  H    0.207674  -0.000436
    28  H    0.199831   0.005276
    29  H    0.195136  -0.001045
    30  H    0.207970   0.008873
    31  H    0.208887   0.004998
 Sum of Mulliken charges =   1.00000   1.00000

 Dipole moment (field-independent basis, Debye):
    X=             12.7167    Y=             -0.1387    Z=              0.3675  Tot=             12.7227
 Quadrupole moment (field-independent basis, Debye-Ang):
   XX=            -98.3929   YY=           -121.0176   ZZ=           -128.0149
   XY=             -2.6940   XZ=             -1.5030   YZ=              3.8898

 Normal termination of Gaussian 09 at Sun Mar  3 17:26:07 2024.
