 Gaussian 09, Revision D.01,
 Gaussian 09:  ES64L-G09RevD.01 24-Apr-2013

 ----------------------------------------------------------------------
 #p CAM-B3LYP/6-31G(d,p) SCRF=(PCM,Solvent=Generic,Read) NoSymm out=wfn
 ----------------------------------------------------------------------

 --------------------
 Title A1528681611_p1
 --------------------
 Symbolic Z-matrix:
 Charge =  1 Multiplicity = 2

                          Input orientation:
 ---------------------------------------------------------------------
 Center     Atomic      Atomic             Coordinates (Angstroms)
 Number     Number       Type             X           Y           Z
 ---------------------------------------------------------------------
      1          6           0       -3.801242   -2.454632    0.165826
      2          6           0       -3.093798   -2.214470   -0.774702
      3          6           0       -2.221984   -1.917592   -1.924222
      4          7           0       -1.329069   -0.808774   -1.617109
      5          6           0       -1.776174    0.469746   -1.868944
      6          8           0       -2.861976    0.691592   -2.406470
      7          7           0       -0.938458    1.490050   -1.465724
      8          6           0       -1.407142    2.866897   -1.620587
      9          6           0       -2.244798    3.316744   -0.431257
     10          6           0        0.251908    1.275934   -0.801345
     11          8           0        0.872476    2.202895   -0.281981
     12          7           0        0.691022   -0.024024   -0.738032
     13          6           0        1.953298   -0.270811   -0.059004
     14          9           0        2.851191    0.666385   -0.511074
     15          9           0        2.498768   -1.436253   -0.501973
     16          6           0        1.951153   -0.214427    1.497450
     17          9           0        1.064941    0.765643    1.894742
     18          8           0        3.188329    0.248820    2.067073
     19          6           0        4.235901   -0.684252    2.026620
     20          9           0        3.994673   -1.677530    2.895117
     21          9           0        5.376762   -0.067089    2.382661
     22          9           0        4.382216   -1.184020    0.793931
     23          6           0        1.413797   -1.524382    2.071986
     24          9           0        2.092418   -2.607147    1.646086
     25          9           0        1.490665   -1.515483    3.427640
     26          9           0        0.106945   -1.699483    1.773659
     27          6           0       -0.122510   -1.089811   -1.018226
     28          8           0        0.203224   -2.240975   -0.731229
     29          1           0       -4.427885   -2.669510    1.000966
     30          1           0       -2.832745   -1.674747   -2.801049
     31          1           0       -1.635365   -2.805917   -2.184839
     32          1           0       -0.546513    3.535822   -1.735218
     33          1           0       -2.001190    2.950645   -2.537743
     34          1           0       -2.580400    4.348725   -0.572177
     35          1           0       -3.129301    2.683254   -0.308732
     36          1           0       -1.669135    3.268175    0.498728
 ---------------------------------------------------------------------

 SCF Done:  E(UCAM-B3LYP) =  -1824.88183585     A.U. after   33 cycles

 Alpha  occ. eigenvalues --  -24.85982 -24.85389 -24.85183 -24.85035 -24.84944
 Alpha  occ. eigenvalues --  -24.84783 -24.84693 -24.84402 -24.83800 -19.34713
 Alpha  occ. eigenvalues --  -19.27892 -19.27565 -19.26129 -14.56123 -14.55845
 Alpha  occ. eigenvalues --  -14.53156 -10.61042 -10.57300 -10.55316 -10.50991
 Alpha  occ. eigenvalues --  -10.49828 -10.48687 -10.48063 -10.47790 -10.47188
 Alpha  occ. eigenvalues --  -10.44235 -10.33661 -10.27920  -1.44923  -1.43740
 Alpha  occ. eigenvalues --   -1.40677  -1.37247  -1.35454  -1.35121  -1.34454
 Alpha  occ. eigenvalues --   -1.34002  -1.33039  -1.26133  -1.22062  -1.21105
 Alpha  occ. eigenvalues --   -1.20460  -1.12980  -1.11705  -1.09358  -1.04714
 Alpha  occ. eigenvalues --   -0.95471  -0.93896  -0.89131  -0.87068  -0.84036
 Alpha  occ. eigenvalues --   -0.82495  -0.81806  -0.78654  -0.77498  -0.76389
 Alpha  occ. eigenvalues --   -0.75197  -0.74843  -0.73375  -0.72702  -0.71591
 Alpha  occ. eigenvalues --   -0.70840  -0.70582  -0.69727  -0.69447  -0.67780
 Alpha  occ. eigenvalues --   -0.66277  -0.65817  -0.63500  -0.62938  -0.60872
 Alpha  occ. eigenvalues --   -0.60044  -0.59615  -0.59011  -0.58799  -0.58498
 Alpha  occ. eigenvalues --   -0.58212  -0.57179  -0.57060  -0.56810  -0.56626
 Alpha  occ. eigenvalues --   -0.56368  -0.55562  -0.55458  -0.55129  -0.54002
 Alpha  occ. eigenvalues --   -0.53643  -0.53525  -0.53223  -0.52853  -0.52644
 Alpha  occ. eigenvalues --   -0.52236  -0.51906  -0.51560  -0.51407  -0.50770
 Alpha  occ. eigenvalues --   -0.50058  -0.49646  -0.48824  -0.47190  -0.45835
 Alpha  occ. eigenvalues --   -0.44505  -0.43630  -0.42579  -0.41994  -0.41385
 Alpha  occ. eigenvalues --   -0.39130  -0.38654
 Alpha virt. eigenvalues --   -0.06531  -0.05478  -0.02505  -0.01471   0.03664
 Alpha virt. eigenvalues --    0.04708   0.07207   0.08630   0.10488   0.12059
 Alpha virt. eigenvalues --    0.12852   0.13711   0.14168   0.16317   0.16750

  Beta  occ. eigenvalues --  -24.85981 -24.85389 -24.85183 -24.85035 -24.84944
  Beta  occ. eigenvalues --  -24.84783 -24.84693 -24.84402 -24.83800 -19.34713
  Beta  occ. eigenvalues --  -19.27850 -19.27519 -19.26129 -14.56130 -14.55841
  Beta  occ. eigenvalues --  -14.53139 -10.61042 -10.57300 -10.55316 -10.50991
  Beta  occ. eigenvalues --  -10.49833 -10.48691 -10.48064 -10.47211 -10.46358
  Beta  occ. eigenvalues --  -10.44204 -10.33661 -10.27919  -1.44923  -1.43739
  Beta  occ. eigenvalues --   -1.40676  -1.37247  -1.35454  -1.35121  -1.34454
  Beta  occ. eigenvalues --   -1.34002  -1.33038  -1.26106  -1.22061  -1.21035
  Beta  occ. eigenvalues --   -1.20436  -1.12897  -1.11629  -1.09288  -1.01351
  Beta  occ. eigenvalues --   -0.95236  -0.93174  -0.89082  -0.87042  -0.84035
  Beta  occ. eigenvalues --   -0.82432  -0.81742  -0.78582  -0.77383  -0.76249
  Beta  occ. eigenvalues --   -0.74924  -0.74266  -0.73363  -0.72696  -0.71584
  Beta  occ. eigenvalues --   -0.70804  -0.70580  -0.69625  -0.69136  -0.67726
  Beta  occ. eigenvalues --   -0.66212  -0.65808  -0.63301  -0.60895  -0.60657
  Beta  occ. eigenvalues --   -0.59899  -0.59592  -0.59000  -0.58789  -0.58471
  Beta  occ. eigenvalues --   -0.58195  -0.57163  -0.56889  -0.56790  -0.56555
  Beta  occ. eigenvalues --   -0.56005  -0.55488  -0.55401  -0.55012  -0.53963
  Beta  occ. eigenvalues --   -0.53571  -0.53477  -0.53209  -0.52628  -0.52235
  Beta  occ. eigenvalues --   -0.51565  -0.51410  -0.50898  -0.50701  -0.50055
  Beta  occ. eigenvalues --   -0.49638  -0.48797  -0.47177  -0.45826  -0.44498
  Beta  occ. eigenvalues --   -0.43380  -0.42514  -0.41891  -0.41257  -0.38956
  Beta  occ. eigenvalues --   -0.38583
  Beta virt. eigenvalues --   -0.28816  -0.04717  -0.02547  -0.01408  -0.00714
  Beta virt. eigenvalues --    0.03691   0.04714   0.07910   0.08922   0.10785
  Beta virt. eigenvalues --    0.12487   0.12960   0.13846   0.14218   0.16386

 Mulliken charges and spin densities:
               1          2
     1  C   -0.045368   0.531672
     2  C    0.485193   0.378086
     3  C   -0.212793   0.007513
     4  N   -0.577342  -0.000114
     5  C    0.846230  -0.003133
     6  O   -0.503333   0.016704
     7  N   -0.569176   0.007594
     8  C   -0.070752   0.000083
     9  C   -0.329885   0.000931
    10  C    0.851064  -0.000883
    11  O   -0.489139   0.000028
    12  N   -0.627404   0.001887
    13  C    0.762320  -0.000080
    14  F   -0.267767   0.000015
    15  F   -0.245990   0.000046
    16  C    0.437889   0.000102
    17  F   -0.271083   0.000005
    18  O   -0.492375   0.000056
    19  C    0.979161  -0.000002
    20  F   -0.239498   0.000001
    21  F   -0.235123   0.000000
    22  F   -0.234131   0.000002
    23  C    0.818687  -0.000024
    24  F   -0.241805   0.000007
    25  F   -0.256244   0.000004
    26  F   -0.251304   0.000120
    27  C    0.853041  -0.003411
    28  O   -0.492789   0.015129
    29  H    0.324473  -0.018404
    30  H    0.285653   0.033807
    31  H    0.284286   0.032018
    32  H    0.166599  -0.000026
    33  H    0.163636   0.000274
    34  H    0.140163   0.000093
    35  H    0.121381  -0.000067
    36  H    0.133520  -0.000035
 Sum of Mulliken charges =   1.00000   1.00000

 Dipole moment (field-independent basis, Debye):
    X=            -16.1069    Y=             -8.8463    Z=             -4.2122  Tot=             18.8529
 Quadrupole moment (field-independent basis, Debye-Ang):
   XX=            -99.1525   YY=           -122.6409   ZZ=           -136.9336
   XY=             32.0453   XZ=              0.9806   YZ=              1.7082

 Normal termination of Gaussian 09 at Sun Mar  3 17:38:12 2024.
