 Gaussian 09, Revision D.01,
 Gaussian 09:  ES64L-G09RevD.01 24-Apr-2013

 ----------------------------------------------------------------------
 #p CAM-B3LYP/6-31G(d,p) SCRF=(PCM,Solvent=Generic,Read) NoSymm out=wfn
 ----------------------------------------------------------------------

 -------------------
 Title A1528681611_0
 -------------------
 Symbolic Z-matrix:
 Charge =  0 Multiplicity = 1

                          Input orientation:
 ---------------------------------------------------------------------
 Center     Atomic      Atomic             Coordinates (Angstroms)
 Number     Number       Type             X           Y           Z
 ---------------------------------------------------------------------
      1          6           0       -3.801242   -2.454632    0.165826
      2          6           0       -3.093798   -2.214470   -0.774702
      3          6           0       -2.221984   -1.917592   -1.924222
      4          7           0       -1.329069   -0.808774   -1.617109
      5          6           0       -1.776174    0.469746   -1.868944
      6          8           0       -2.861976    0.691592   -2.406470
      7          7           0       -0.938458    1.490050   -1.465724
      8          6           0       -1.407142    2.866897   -1.620587
      9          6           0       -2.244798    3.316744   -0.431257
     10          6           0        0.251908    1.275934   -0.801345
     11          8           0        0.872476    2.202895   -0.281981
     12          7           0        0.691022   -0.024024   -0.738032
     13          6           0        1.953298   -0.270811   -0.059004
     14          9           0        2.851191    0.666385   -0.511074
     15          9           0        2.498768   -1.436253   -0.501973
     16          6           0        1.951153   -0.214427    1.497450
     17          9           0        1.064941    0.765643    1.894742
     18          8           0        3.188329    0.248820    2.067073
     19          6           0        4.235901   -0.684252    2.026620
     20          9           0        3.994673   -1.677530    2.895117
     21          9           0        5.376762   -0.067089    2.382661
     22          9           0        4.382216   -1.184020    0.793931
     23          6           0        1.413797   -1.524382    2.071986
     24          9           0        2.092418   -2.607147    1.646086
     25          9           0        1.490665   -1.515483    3.427640
     26          9           0        0.106945   -1.699483    1.773659
     27          6           0       -0.122510   -1.089811   -1.018226
     28          8           0        0.203224   -2.240975   -0.731229
     29          1           0       -4.427885   -2.669510    1.000966
     30          1           0       -2.832745   -1.674747   -2.801049
     31          1           0       -1.635365   -2.805917   -2.184839
     32          1           0       -0.546513    3.535822   -1.735218
     33          1           0       -2.001190    2.950645   -2.537743
     34          1           0       -2.580400    4.348725   -0.572177
     35          1           0       -3.129301    2.683254   -0.308732
     36          1           0       -1.669135    3.268175    0.498728
 ---------------------------------------------------------------------

 SCF Done:  E(RCAM-B3LYP) =  -1825.19679780     A.U. after   13 cycles

 Alpha  occ. eigenvalues --  -24.83923 -24.83532 -24.83494 -24.83422 -24.83114
 Alpha  occ. eigenvalues --  -24.82964 -24.82446 -24.82361 -24.81629 -19.32985
 Alpha  occ. eigenvalues --  -19.23273 -19.23194 -19.23030 -14.52460 -14.50393
 Alpha  occ. eigenvalues --  -14.49664 -10.59584 -10.55137 -10.52877 -10.48888
 Alpha  occ. eigenvalues --  -10.45331 -10.45059 -10.44283 -10.34327 -10.31238
 Alpha  occ. eigenvalues --  -10.27534 -10.26736 -10.25736  -1.43406  -1.41627
 Alpha  occ. eigenvalues --   -1.38429  -1.35178  -1.33913  -1.33379  -1.32626
 Alpha  occ. eigenvalues --   -1.31972  -1.30833  -1.21969  -1.20331  -1.16881
 Alpha  occ. eigenvalues --   -1.16697  -1.08878  -1.06930  -1.05467  -0.92880
 Alpha  occ. eigenvalues --   -0.88838  -0.86216  -0.84047  -0.82238  -0.81320
 Alpha  occ. eigenvalues --   -0.78548  -0.77975  -0.75454  -0.73708  -0.73110
 Alpha  occ. eigenvalues --   -0.72612  -0.71189  -0.70710  -0.69973  -0.68622
 Alpha  occ. eigenvalues --   -0.68113  -0.67352  -0.64845  -0.63714  -0.63100
 Alpha  occ. eigenvalues --   -0.61717  -0.59667  -0.58385  -0.57318  -0.57113
 Alpha  occ. eigenvalues --   -0.57028  -0.56853  -0.56010  -0.55570  -0.55317
 Alpha  occ. eigenvalues --   -0.54980  -0.54725  -0.54252  -0.54155  -0.53966
 Alpha  occ. eigenvalues --   -0.53388  -0.52716  -0.52491  -0.51631  -0.51347
 Alpha  occ. eigenvalues --   -0.51037  -0.50524  -0.50347  -0.50268  -0.50007
 Alpha  occ. eigenvalues --   -0.49743  -0.49250  -0.48616  -0.48126  -0.47480
 Alpha  occ. eigenvalues --   -0.46220  -0.44868  -0.43695  -0.42147  -0.39510
 Alpha  occ. eigenvalues --   -0.39188  -0.38025  -0.36958  -0.35697  -0.35249
 Alpha  occ. eigenvalues --   -0.34765  -0.34141
 Alpha virt. eigenvalues --    0.01350   0.02115   0.05961   0.07017   0.08521
 Alpha virt. eigenvalues --    0.09921   0.12330   0.14658   0.15462   0.16838
 Alpha virt. eigenvalues --    0.17564   0.18096   0.18893   0.19192   0.19962

 Mulliken charges:
               1
     1  C   -0.419618
     2  C    0.274054
     3  C   -0.173922
     4  N   -0.566290
     5  C    0.832128
     6  O   -0.520299
     7  N   -0.570274
     8  C   -0.062984
     9  C   -0.328739
    10  C    0.842991
    11  O   -0.510275
    12  N   -0.626513
    13  C    0.760906
    14  F   -0.274680
    15  F   -0.249566
    16  C    0.435224
    17  F   -0.271638
    18  O   -0.497048
    19  C    0.976783
    20  F   -0.240580
    21  F   -0.238143
    22  F   -0.234386
    23  C    0.818438
    24  F   -0.244564
    25  F   -0.260722
    26  F   -0.242840
    27  C    0.836463
    28  O   -0.508705
    29  H    0.191255
    30  H    0.192191
    31  H    0.190935
    32  H    0.152639
    33  H    0.154011
    34  H    0.127298
    35  H    0.127618
    36  H    0.128853
 Sum of Mulliken charges =   0.00000

 Dipole moment (field-independent basis, Debye):
    X=             -2.0090    Y=              0.5374    Z=             -1.6120  Tot=              2.6312
 Quadrupole moment (field-independent basis, Debye-Ang):
   XX=           -155.2174   YY=           -152.4646   ZZ=           -146.8093
   XY=             -0.3068   XZ=             -5.1841   YZ=             -1.3490

 Normal termination of Gaussian 09 at Sun Mar  3 17:36:43 2024.
