 Gaussian 09, Revision D.01,
 Gaussian 09:  ES64L-G09RevD.01 24-Apr-2013

 ----------------------------------------------------------------------
 #p CAM-B3LYP/6-31G(d,p) SCRF=(PCM,Solvent=Generic,Read) NoSymm out=wfn
 ----------------------------------------------------------------------

 -------------------
 Title A902650422_p1
 -------------------
 Symbolic Z-matrix:
 Charge =  1 Multiplicity = 2

                          Input orientation:
 ---------------------------------------------------------------------
 Center     Atomic      Atomic             Coordinates (Angstroms)
 Number     Number       Type             X           Y           Z
 ---------------------------------------------------------------------
      1          6           0        3.630925   -1.915013   -2.014328
      2          6           0        2.379546   -1.896270   -1.539852
      3          7           0        1.846797   -1.098742   -0.515086
      4          6           0        2.655282   -0.315237    0.314207
      5          8           0        3.874191   -0.486003    0.426556
      6          7           0        1.992826    0.675813    1.055200
      7          6           0        2.796287    1.628955    1.699267
      8          6           0        2.425102    2.610384    2.530081
      9          6           0        0.603820    0.702888    1.126926
     10          8           0       -0.050314    1.685690    1.471369
     11          7           0       -0.031186   -0.450356    0.744463
     12          6           0       -1.463616   -0.535531    0.990838
     13          9           0       -1.809883   -1.857356    0.994899
     14          9           0       -1.695819   -0.153797    2.282671
     15          6           0       -2.398653    0.255888    0.030902
     16          9           0       -2.285345    1.592441    0.284560
     17          8           0       -1.968732    0.097441   -1.324748
     18          6           0       -2.899200    0.571953   -2.261074
     19          9           0       -2.282480    0.686995   -3.452123
     20          9           0       -3.903385   -0.311025   -2.379271
     21          9           0       -3.377429    1.773642   -1.905017
     22          6           0       -3.818740   -0.208751    0.385769
     23          9           0       -4.035783   -1.494445    0.028252
     24          9           0       -4.090187   -0.104546    1.705258
     25          9           0       -4.757563    0.531989   -0.252561
     26          6           0        0.478899   -1.214162   -0.272615
     27          8           0       -0.251484   -1.946125   -0.945935
     28          1           0        4.433813   -1.287356   -1.645625
     29          1           0        3.890878   -2.587964   -2.827031
     30          1           0        1.666611   -2.563779   -2.026231
     31          1           0        3.865826    1.536903    1.503649
     32          1           0        1.402235    2.806747    2.829185
     33          1           0        3.176762    3.268730    2.957446
 ---------------------------------------------------------------------

 SCF Done:  E(UCAM-B3LYP) =  -1785.63020185     A.U. after   39 cycles

 Alpha  occ. eigenvalues --  -24.86006 -24.85927 -24.85455 -24.85386 -24.85212
 Alpha  occ. eigenvalues --  -24.85203 -24.84928 -24.84686 -24.84460 -19.35449
 Alpha  occ. eigenvalues --  -19.30903 -19.30706 -19.30422 -14.61340 -14.60301
 Alpha  occ. eigenvalues --  -14.57725 -10.61569 -10.57311 -10.56773 -10.52105
 Alpha  occ. eigenvalues --  -10.52067 -10.52019 -10.51582 -10.41692 -10.40153
 Alpha  occ. eigenvalues --  -10.37277 -10.35707  -1.45100  -1.43627  -1.41942
 Alpha  occ. eigenvalues --   -1.37852  -1.35348  -1.35194  -1.34951  -1.34088
 Alpha  occ. eigenvalues --   -1.33828  -1.29207  -1.24036  -1.23629  -1.22851
 Alpha  occ. eigenvalues --   -1.15872  -1.14810  -1.13694  -0.97531  -0.95699
 Alpha  occ. eigenvalues --   -0.94645  -0.89116  -0.86367  -0.85641  -0.84304
 Alpha  occ. eigenvalues --   -0.81225  -0.79969  -0.77845  -0.75532  -0.75074
 Alpha  occ. eigenvalues --   -0.74653  -0.72504  -0.71834  -0.70450  -0.70323
 Alpha  occ. eigenvalues --   -0.69565  -0.69020  -0.68039  -0.67448  -0.66764
 Alpha  occ. eigenvalues --   -0.65458  -0.62507  -0.62037  -0.61351  -0.60647
 Alpha  occ. eigenvalues --   -0.59991  -0.59927  -0.59044  -0.58880  -0.58630
 Alpha  occ. eigenvalues --   -0.58248  -0.57999  -0.57623  -0.57394  -0.57033
 Alpha  occ. eigenvalues --   -0.56036  -0.55694  -0.54771  -0.54435  -0.54057
 Alpha  occ. eigenvalues --   -0.53773  -0.53215  -0.52635  -0.52585  -0.52150
 Alpha  occ. eigenvalues --   -0.51741  -0.51138  -0.50797  -0.50104  -0.48957
 Alpha  occ. eigenvalues --   -0.48137  -0.47039  -0.45749  -0.44695  -0.43436
 Alpha  occ. eigenvalues --   -0.42266  -0.41377  -0.39888
 Alpha virt. eigenvalues --   -0.06948  -0.06054  -0.04011   0.00591   0.02835
 Alpha virt. eigenvalues --    0.05628   0.06914   0.09705   0.09940   0.11351
 Alpha virt. eigenvalues --    0.12472   0.14488   0.14760   0.15611   0.15999

  Beta  occ. eigenvalues --  -24.86006 -24.85927 -24.85454 -24.85386 -24.85212
  Beta  occ. eigenvalues --  -24.85203 -24.84927 -24.84686 -24.84460 -19.35447
  Beta  occ. eigenvalues --  -19.30761 -19.30547 -19.30510 -14.60894 -14.59919
  Beta  occ. eigenvalues --  -14.57748 -10.61569 -10.57311 -10.56772 -10.52176
  Beta  occ. eigenvalues --  -10.52138 -10.52068 -10.51583 -10.41647 -10.40161
  Beta  occ. eigenvalues --  -10.36752 -10.35264  -1.45100  -1.43627  -1.41942
  Beta  occ. eigenvalues --   -1.37850  -1.35348  -1.35194  -1.34951  -1.34088
  Beta  occ. eigenvalues --   -1.33828  -1.28930  -1.23724  -1.23603  -1.22827
  Beta  occ. eigenvalues --   -1.15571  -1.14139  -1.13485  -0.96981  -0.95295
  Beta  occ. eigenvalues --   -0.93603  -0.89060  -0.85939  -0.85107  -0.84262
  Beta  occ. eigenvalues --   -0.81098  -0.79797  -0.77729  -0.75191  -0.74936
  Beta  occ. eigenvalues --   -0.74617  -0.72495  -0.71808  -0.70439  -0.70274
  Beta  occ. eigenvalues --   -0.69395  -0.68888  -0.67613  -0.67369  -0.66330
  Beta  occ. eigenvalues --   -0.65191  -0.62332  -0.62000  -0.60485  -0.60292
  Beta  occ. eigenvalues --   -0.59865  -0.59530  -0.58862  -0.58759  -0.58368
  Beta  occ. eigenvalues --   -0.58155  -0.57802  -0.57574  -0.57341  -0.57028
  Beta  occ. eigenvalues --   -0.56001  -0.55645  -0.54724  -0.54381  -0.53876
  Beta  occ. eigenvalues --   -0.53681  -0.53093  -0.52603  -0.52407  -0.52113
  Beta  occ. eigenvalues --   -0.51729  -0.51077  -0.50796  -0.48663  -0.48343
  Beta  occ. eigenvalues --   -0.47654  -0.46849  -0.45369  -0.44596  -0.42786
  Beta  occ. eigenvalues --   -0.42018  -0.34771
  Beta virt. eigenvalues --   -0.25100  -0.06633  -0.05061  -0.02303   0.02730
  Beta virt. eigenvalues --    0.02889   0.06084   0.07703   0.09916   0.10092
  Beta virt. eigenvalues --    0.11538   0.12582   0.14568   0.15006   0.15702

 Mulliken charges and spin densities:
               1          2
     1  C   -0.168763   0.379515
     2  C    0.177062   0.039954
     3  N   -0.582296   0.186364
     4  C    0.853571  -0.040222
     5  O   -0.457717  -0.045663
     6  N   -0.570004   0.159683
     7  C    0.153957  -0.002880
     8  C   -0.183980   0.326664
     9  C    0.848570  -0.027850
    10  O   -0.429548   0.055317
    11  N   -0.642103  -0.006765
    12  C    0.765207  -0.000558
    13  F   -0.248786   0.000024
    14  F   -0.253422  -0.000024
    15  C    0.443927  -0.000252
    16  F   -0.250018   0.000193
    17  O   -0.514095   0.000388
    18  C    0.999366   0.000005
    19  F   -0.238552   0.000001
    20  F   -0.239708  -0.000001
    21  F   -0.239260   0.000033
    22  C    0.816599  -0.000043
    23  F   -0.243649   0.000000
    24  F   -0.241106   0.000001
    25  F   -0.255603  -0.000021
    26  C    0.882317  -0.038427
    27  O   -0.439564   0.077210
    28  H    0.207265  -0.015374
    29  H    0.206550  -0.017339
    30  H    0.232866  -0.001787
    31  H    0.218444  -0.000021
    32  H    0.198770  -0.013291
    33  H    0.193704  -0.014833
 Sum of Mulliken charges =   1.00000   1.00000

 Dipole moment (field-independent basis, Debye):
    X=             12.9744    Y=             -0.1854    Z=             -0.0308  Tot=             12.9758
 Quadrupole moment (field-independent basis, Debye-Ang):
   XX=           -109.3199   YY=           -125.1779   ZZ=           -121.7054
   XY=             -1.3414   XZ=             -3.2185   YZ=             18.7535

 Normal termination of Gaussian 09 at Sun Mar  3 18:00:02 2024.
