 Gaussian 09, Revision D.01,
 Gaussian 09:  ES64L-G09RevD.01 24-Apr-2013

 ----------------------------------------------------------------------
 #p CAM-B3LYP/6-31G(d,p) SCRF=(PCM,Solvent=Generic,Read) NoSymm out=wfn
 ----------------------------------------------------------------------

 ------------------
 Title A902650422_0
 ------------------
 Symbolic Z-matrix:
 Charge =  0 Multiplicity = 1

                          Input orientation:
 ---------------------------------------------------------------------
 Center     Atomic      Atomic             Coordinates (Angstroms)
 Number     Number       Type             X           Y           Z
 ---------------------------------------------------------------------
      1          6           0        3.630925   -1.915013   -2.014328
      2          6           0        2.379546   -1.896270   -1.539852
      3          7           0        1.846797   -1.098742   -0.515086
      4          6           0        2.655282   -0.315237    0.314207
      5          8           0        3.874191   -0.486003    0.426556
      6          7           0        1.992826    0.675813    1.055200
      7          6           0        2.796287    1.628955    1.699267
      8          6           0        2.425102    2.610384    2.530081
      9          6           0        0.603820    0.702888    1.126926
     10          8           0       -0.050314    1.685690    1.471369
     11          7           0       -0.031186   -0.450356    0.744463
     12          6           0       -1.463616   -0.535531    0.990838
     13          9           0       -1.809883   -1.857356    0.994899
     14          9           0       -1.695819   -0.153797    2.282671
     15          6           0       -2.398653    0.255888    0.030902
     16          9           0       -2.285345    1.592441    0.284560
     17          8           0       -1.968732    0.097441   -1.324748
     18          6           0       -2.899200    0.571953   -2.261074
     19          9           0       -2.282480    0.686995   -3.452123
     20          9           0       -3.903385   -0.311025   -2.379271
     21          9           0       -3.377429    1.773642   -1.905017
     22          6           0       -3.818740   -0.208751    0.385769
     23          9           0       -4.035783   -1.494445    0.028252
     24          9           0       -4.090187   -0.104546    1.705258
     25          9           0       -4.757563    0.531989   -0.252561
     26          6           0        0.478899   -1.214162   -0.272615
     27          8           0       -0.251484   -1.946125   -0.945935
     28          1           0        4.433813   -1.287356   -1.645625
     29          1           0        3.890878   -2.587964   -2.827031
     30          1           0        1.666611   -2.563779   -2.026231
     31          1           0        3.865826    1.536903    1.503649
     32          1           0        1.402235    2.806747    2.829185
     33          1           0        3.176762    3.268730    2.957446
 ---------------------------------------------------------------------

 SCF Done:  E(RCAM-B3LYP) =  -1785.91029016     A.U. after   14 cycles

 Alpha  occ. eigenvalues --  -24.83577 -24.83470 -24.83383 -24.83353 -24.82829
 Alpha  occ. eigenvalues --  -24.82809 -24.82728 -24.82661 -24.82317 -19.32921
 Alpha  occ. eigenvalues --  -19.24509 -19.24457 -19.23885 -14.52449 -14.51680
 Alpha  occ. eigenvalues --  -14.51527 -10.59527 -10.55275 -10.53266 -10.48885
 Alpha  occ. eigenvalues --  -10.45983 -10.45833 -10.45675 -10.32106 -10.32062
 Alpha  occ. eigenvalues --  -10.26905 -10.26848  -1.43178  -1.41645  -1.38896
 Alpha  occ. eigenvalues --   -1.35301  -1.33485  -1.33233  -1.32628  -1.32053
 Alpha  occ. eigenvalues --   -1.31427  -1.22592  -1.20488  -1.17562  -1.17285
 Alpha  occ. eigenvalues --   -1.09405  -1.07555  -1.06751  -0.93349  -0.88464
 Alpha  occ. eigenvalues --   -0.86161  -0.84250  -0.81911  -0.79588  -0.78331
 Alpha  occ. eigenvalues --   -0.76877  -0.74665  -0.73412  -0.72616  -0.71119
 Alpha  occ. eigenvalues --   -0.70356  -0.69370  -0.68473  -0.67910  -0.67101
 Alpha  occ. eigenvalues --   -0.66479  -0.65757  -0.64337  -0.61802  -0.59788
 Alpha  occ. eigenvalues --   -0.59324  -0.58275  -0.57450  -0.57074  -0.56642
 Alpha  occ. eigenvalues --   -0.56080  -0.55799  -0.55501  -0.54795  -0.54398
 Alpha  occ. eigenvalues --   -0.54110  -0.53727  -0.53550  -0.53055  -0.52978
 Alpha  occ. eigenvalues --   -0.52229  -0.51854  -0.51219  -0.50842  -0.50730
 Alpha  occ. eigenvalues --   -0.50555  -0.50245  -0.49984  -0.49766  -0.48982
 Alpha  occ. eigenvalues --   -0.48572  -0.46488  -0.45889  -0.45450  -0.44493
 Alpha  occ. eigenvalues --   -0.42756  -0.41937  -0.39703  -0.38408  -0.37765
 Alpha  occ. eigenvalues --   -0.36238  -0.32330  -0.30867
 Alpha virt. eigenvalues --   -0.00646   0.00432   0.03378   0.05880   0.08524
 Alpha virt. eigenvalues --    0.09503   0.13477   0.14256   0.15706   0.16678
 Alpha virt. eigenvalues --    0.17305   0.17750   0.20030   0.20287   0.21085

 Mulliken charges:
               1
     1  C   -0.266715
     2  C    0.114369
     3  N   -0.608536
     4  C    0.824744
     5  O   -0.488091
     6  N   -0.592088
     7  C    0.112501
     8  C   -0.266611
     9  C    0.815522
    10  O   -0.478655
    11  N   -0.637216
    12  C    0.763114
    13  F   -0.257305
    14  F   -0.262556
    15  C    0.442453
    16  F   -0.252978
    17  O   -0.506705
    18  C    0.995414
    19  F   -0.240376
    20  F   -0.243667
    21  F   -0.242527
    22  C    0.810472
    23  F   -0.246324
    24  F   -0.244253
    25  F   -0.260451
    26  C    0.845888
    27  O   -0.501906
    28  H    0.140595
    29  H    0.128584
    30  H    0.167519
    31  H    0.165134
    32  H    0.143132
    33  H    0.127519
 Sum of Mulliken charges =   0.00000

 Dipole moment (field-independent basis, Debye):
    X=              2.4681    Y=              0.4570    Z=             -0.3252  Tot=              2.5310
 Quadrupole moment (field-independent basis, Debye-Ang):
   XX=           -149.2888   YY=           -147.6132   ZZ=           -142.4869
   XY=              1.6791   XZ=             -1.0238   YZ=              1.9606

 Normal termination of Gaussian 09 at Sun Mar  3 17:59:00 2024.
