 Gaussian 09, Revision D.01,
 Gaussian 09:  ES64L-G09RevD.01 24-Apr-2013

 ----------------------------------------------------------------------
 #p CAM-B3LYP/6-31G(d,p) SCRF=(PCM,Solvent=Generic,Read) NoSymm out=wfn
 ----------------------------------------------------------------------

 --------------------
 Title A1303169712_p1
 --------------------
 Symbolic Z-matrix:
 Charge =  1 Multiplicity = 2

                          Input orientation:
 ---------------------------------------------------------------------
 Center     Atomic      Atomic             Coordinates (Angstroms)
 Number     Number       Type             X           Y           Z
 ---------------------------------------------------------------------
      1          6           0       -0.194725    4.895121    2.210838
      2          6           0       -0.088388    3.429392    1.824782
      3          6           0       -0.210731    3.237113    0.314556
      4          7           0       -0.103359    1.824808   -0.044276
      5          6           0       -1.300936    1.050710   -0.142443
      6          7           0       -1.029728   -0.314433    0.172612
      7          6           0       -2.149306   -1.137482    0.601903
      8          9           0       -1.714102   -2.233212    1.273993
      9          9           0       -2.770430   -0.391561    1.568173
     10          6           0       -3.227228   -1.540269   -0.445119
     11          9           0       -3.721715   -0.400883   -1.033165
     12          8           0       -4.365002   -2.262724    0.052508
     13          6           0       -5.043992   -1.620806    1.096875
     14          9           0       -5.080200   -0.289421    0.919608
     15          9           0       -6.307586   -2.083563    1.131709
     16          9           0       -4.446876   -1.917468    2.262465
     17          6           0       -2.595152   -2.392059   -1.539932
     18          9           0       -2.036805   -3.523418   -1.068232
     19          9           0       -3.533238   -2.769662   -2.449645
     20          9           0       -1.661459   -1.703659   -2.237379
     21          6           0        0.093850   -0.890611   -0.354845
     22          8           0        0.227826   -2.109273   -0.368267
     23          7           0        1.053636   -0.035208   -0.841094
     24          6           0        2.278720   -0.608407   -1.370856
     25          9           0        2.737548    0.245395   -2.346203
     26          9           0        1.982971   -1.734082   -2.079290
     27          6           0        3.455407   -0.876037   -0.384867
     28          9           0        3.501480    0.146706    0.538156
     29          8           0        4.759433   -0.787749   -0.989894
     30          6           0        5.080667   -1.841348   -1.858838
     31          9           0        6.261779   -1.569153   -2.443897
     32          9           0        5.198551   -2.987062   -1.171874
     33          9           0        4.150764   -1.974462   -2.812317
     34          6           0        3.199105   -2.150893    0.417799
     35          9           0        4.281032   -2.456710    1.180471
     36          9           0        2.947373   -3.224566   -0.355663
     37          9           0        2.168293   -1.999786    1.279726
     38          6           0        1.085117    1.304559   -0.509097
     39          8           0        2.098216    1.992947   -0.591150
     40          1           0        0.597333    5.484024    1.737281
     41          1           0       -0.099739    5.008663    3.294994
     42          1           0       -1.160831    5.311461    1.908584
     43          1           0        0.871351    3.030314    2.174242
     44          1           0       -0.871612    2.861109    2.340361
     45          1           0        0.576183    3.806228   -0.193031
     46          1           0       -1.170076    3.618779   -0.053845
     47          1           0       -1.680700    1.121281   -1.167773
     48          1           0       -2.042720    1.457356    0.551356
 ---------------------------------------------------------------------

 SCF Done:  E(UCAM-B3LYP) =  -2800.09489578     A.U. after   24 cycles

 Alpha  occ. eigenvalues --  -24.86935 -24.86867 -24.86726 -24.86468 -24.86243
 Alpha  occ. eigenvalues --  -24.85922 -24.85845 -24.85828 -24.85716 -24.85650
 Alpha  occ. eigenvalues --  -24.85615 -24.85310 -24.85253 -24.85143 -24.85127
 Alpha  occ. eigenvalues --  -24.85086 -24.84838 -24.84456 -19.35656 -19.35460
 Alpha  occ. eigenvalues --  -19.34991 -19.27936 -14.66325 -14.58806 -14.56382
 Alpha  occ. eigenvalues --  -10.61677 -10.61486 -10.58039 -10.57470 -10.57145
 Alpha  occ. eigenvalues --  -10.56994 -10.53976 -10.52227 -10.52003 -10.50610
 Alpha  occ. eigenvalues --  -10.46089 -10.40259 -10.33807 -10.29738  -1.45296
 Alpha  occ. eigenvalues --   -1.45255  -1.44351  -1.43792  -1.42726  -1.42055
 Alpha  occ. eigenvalues --   -1.39196  -1.38405  -1.35845  -1.35778  -1.35697
 Alpha  occ. eigenvalues --   -1.35523  -1.35241  -1.34784  -1.34682  -1.34543
 Alpha  occ. eigenvalues --   -1.34260  -1.33937  -1.30329  -1.24453  -1.23115
 Alpha  occ. eigenvalues --   -1.22742  -1.21034  -1.14984  -1.13533  -0.97827
 Alpha  occ. eigenvalues --   -0.96656  -0.95895  -0.93427  -0.90089  -0.88317
 Alpha  occ. eigenvalues --   -0.85131  -0.84336  -0.83347  -0.83076  -0.80155
 Alpha  occ. eigenvalues --   -0.78805  -0.78613  -0.76742  -0.76334  -0.75396
 Alpha  occ. eigenvalues --   -0.74849  -0.74419  -0.73989  -0.73351  -0.72724
 Alpha  occ. eigenvalues --   -0.72075  -0.71750  -0.71364  -0.71207  -0.70852
 Alpha  occ. eigenvalues --   -0.70705  -0.70151  -0.69954  -0.69102  -0.68490
 Alpha  occ. eigenvalues --   -0.68039  -0.67626  -0.66905  -0.65481  -0.63765
 Alpha  occ. eigenvalues --   -0.63189  -0.62104  -0.61854  -0.61163  -0.60589
 Alpha  occ. eigenvalues --   -0.60127  -0.59901  -0.59657  -0.59398  -0.59242
 Alpha  occ. eigenvalues --   -0.59112  -0.58508  -0.58242  -0.57842  -0.57701
 Alpha  occ. eigenvalues --   -0.57497  -0.57267  -0.57015  -0.56820  -0.56611
 Alpha  occ. eigenvalues --   -0.56042  -0.55915  -0.55453  -0.55102  -0.54867
 Alpha  occ. eigenvalues --   -0.54780  -0.54677  -0.54246  -0.53940  -0.53744
 Alpha  occ. eigenvalues --   -0.53448  -0.53249  -0.53088  -0.52782  -0.52489
 Alpha  occ. eigenvalues --   -0.52216  -0.52020  -0.51863  -0.51728  -0.51657
 Alpha  occ. eigenvalues --   -0.51226  -0.50979  -0.50756  -0.50175  -0.48942
 Alpha  occ. eigenvalues --   -0.48846  -0.47897  -0.47524  -0.46916  -0.46358
 Alpha  occ. eigenvalues --   -0.45686  -0.44618  -0.42500  -0.41663
 Alpha virt. eigenvalues --   -0.06406  -0.00720   0.02184   0.03053   0.03458
 Alpha virt. eigenvalues --    0.04151   0.06449   0.08211   0.09864   0.10186
 Alpha virt. eigenvalues --    0.10869   0.11748   0.12341   0.13140   0.14250

  Beta  occ. eigenvalues --  -24.86932 -24.86867 -24.86724 -24.86464 -24.86236
  Beta  occ. eigenvalues --  -24.85922 -24.85845 -24.85828 -24.85716 -24.85646
  Beta  occ. eigenvalues --  -24.85615 -24.85310 -24.85253 -24.85143 -24.85127
  Beta  occ. eigenvalues --  -24.85086 -24.84838 -24.84456 -19.35657 -19.35459
  Beta  occ. eigenvalues --  -19.34290 -19.27961 -14.64803 -14.58825 -14.56345
  Beta  occ. eigenvalues --  -10.61677 -10.61486 -10.58039 -10.57470 -10.57144
  Beta  occ. eigenvalues --  -10.56995 -10.54227 -10.52228 -10.52003 -10.50609
  Beta  occ. eigenvalues --  -10.46122 -10.40252 -10.33646 -10.29716  -1.45295
  Beta  occ. eigenvalues --   -1.45254  -1.44351  -1.43792  -1.42720  -1.42051
  Beta  occ. eigenvalues --   -1.39192  -1.38392  -1.35842  -1.35778  -1.35695
  Beta  occ. eigenvalues --   -1.35522  -1.35239  -1.34783  -1.34680  -1.34539
  Beta  occ. eigenvalues --   -1.34259  -1.33936  -1.29235  -1.24028  -1.23115
  Beta  occ. eigenvalues --   -1.22735  -1.19140  -1.14806  -1.12751  -0.97593
  Beta  occ. eigenvalues --   -0.96501  -0.95587  -0.93018  -0.89992  -0.88053
  Beta  occ. eigenvalues --   -0.85052  -0.84316  -0.83307  -0.82940  -0.80050
  Beta  occ. eigenvalues --   -0.78609  -0.78333  -0.76623  -0.75983  -0.75130
  Beta  occ. eigenvalues --   -0.74402  -0.74072  -0.73740  -0.73335  -0.72491
  Beta  occ. eigenvalues --   -0.72002  -0.71717  -0.71214  -0.71089  -0.70710
  Beta  occ. eigenvalues --   -0.70253  -0.70081  -0.69632  -0.68700  -0.68365
  Beta  occ. eigenvalues --   -0.67776  -0.67205  -0.66847  -0.65086  -0.63254
  Beta  occ. eigenvalues --   -0.62660  -0.61481  -0.61082  -0.60672  -0.60325
  Beta  occ. eigenvalues --   -0.60109  -0.59799  -0.59533  -0.59228  -0.59190
  Beta  occ. eigenvalues --   -0.59067  -0.58411  -0.58120  -0.57794  -0.57487
  Beta  occ. eigenvalues --   -0.57297  -0.57256  -0.56957  -0.56746  -0.56270
  Beta  occ. eigenvalues --   -0.55906  -0.55793  -0.55211  -0.55092  -0.54802
  Beta  occ. eigenvalues --   -0.54737  -0.54246  -0.54229  -0.53918  -0.53722
  Beta  occ. eigenvalues --   -0.53440  -0.53218  -0.53026  -0.52730  -0.52361
  Beta  occ. eigenvalues --   -0.52149  -0.52012  -0.51828  -0.51670  -0.51622
  Beta  occ. eigenvalues --   -0.50983  -0.50768  -0.50377  -0.49351  -0.48842
  Beta  occ. eigenvalues --   -0.47730  -0.47173  -0.47055  -0.46458  -0.45627
  Beta  occ. eigenvalues --   -0.43897  -0.42407  -0.41610
  Beta virt. eigenvalues --   -0.25551  -0.04763  -0.00355   0.02214   0.03277
  Beta virt. eigenvalues --    0.03509   0.04222   0.06642   0.08511   0.10114
  Beta virt. eigenvalues --    0.10578   0.11106   0.11829   0.12486   0.13252

 Mulliken charges and spin densities:
               1          2
     1  C   -0.331216   0.013998
     2  C   -0.206739   0.074739
     3  C   -0.118171  -0.008313
     4  N   -0.345040   0.690377
     5  C    0.065195  -0.032112
     6  N   -0.593441   0.014539
     7  C    0.745429   0.000545
     8  F   -0.227697   0.001022
     9  F   -0.270752   0.000396
    10  C    0.425413  -0.000215
    11  F   -0.269451   0.000515
    12  O   -0.504888  -0.000046
    13  C    1.006924   0.000010
    14  F   -0.249211   0.000000
    15  F   -0.234001  -0.000003
    16  F   -0.241609   0.000005
    17  C    0.821411   0.000015
    18  F   -0.227675  -0.000014
    19  F   -0.247991   0.000006
    20  F   -0.250172   0.000020
    21  C    0.865549   0.001754
    22  O   -0.476990  -0.009229
    23  N   -0.642943  -0.002014
    24  C    0.762675  -0.000680
    25  F   -0.268496   0.000756
    26  F   -0.239267  -0.000014
    27  C    0.436495   0.000099
    28  F   -0.271156   0.001296
    29  O   -0.489305   0.000337
    30  C    0.976845  -0.000013
    31  F   -0.234783  -0.000008
    32  F   -0.234635   0.000003
    33  F   -0.231547   0.000017
    34  C    0.826613  -0.000002
    35  F   -0.255246   0.000031
    36  F   -0.239388   0.000030
    37  F   -0.245386  -0.000018
    38  C    0.881614  -0.143749
    39  O   -0.368913   0.276318
    40  H    0.142051  -0.000422
    41  H    0.154808   0.007152
    42  H    0.136982  -0.000565
    43  H    0.165178  -0.002193
    44  H    0.154651  -0.002431
    45  H    0.225314   0.010094
    46  H    0.215737   0.022734
    47  H    0.263050   0.068021
    48  H    0.244175   0.017215
 Sum of Mulliken charges =   1.00000   1.00000

 Dipole moment (field-independent basis, Debye):
    X=             -3.8837    Y=             12.1714    Z=              1.0941  Tot=             12.8228
 Quadrupole moment (field-independent basis, Debye-Ang):
   XX=           -199.6976   YY=           -175.6437   ZZ=           -199.2219
   XY=             -8.9026   XZ=             -0.5603   YZ=              8.3863

 Normal termination of Gaussian 09 at Sun Mar  3 18:27:16 2024.
