 Gaussian 09, Revision D.01,
 Gaussian 09:  ES64L-G09RevD.01 24-Apr-2013

 ----------------------------------------------------------------------
 #p CAM-B3LYP/6-31G(d,p) SCRF=(PCM,Solvent=Generic,Read) NoSymm out=wfn
 ----------------------------------------------------------------------

 -------------------
 Title A1303169712_0
 -------------------
 Symbolic Z-matrix:
 Charge =  0 Multiplicity = 1

                          Input orientation:
 ---------------------------------------------------------------------
 Center     Atomic      Atomic             Coordinates (Angstroms)
 Number     Number       Type             X           Y           Z
 ---------------------------------------------------------------------
      1          6           0       -0.194725    4.895121    2.210838
      2          6           0       -0.088388    3.429392    1.824782
      3          6           0       -0.210731    3.237113    0.314556
      4          7           0       -0.103359    1.824808   -0.044276
      5          6           0       -1.300936    1.050710   -0.142443
      6          7           0       -1.029728   -0.314433    0.172612
      7          6           0       -2.149306   -1.137482    0.601903
      8          9           0       -1.714102   -2.233212    1.273993
      9          9           0       -2.770430   -0.391561    1.568173
     10          6           0       -3.227228   -1.540269   -0.445119
     11          9           0       -3.721715   -0.400883   -1.033165
     12          8           0       -4.365002   -2.262724    0.052508
     13          6           0       -5.043992   -1.620806    1.096875
     14          9           0       -5.080200   -0.289421    0.919608
     15          9           0       -6.307586   -2.083563    1.131709
     16          9           0       -4.446876   -1.917468    2.262465
     17          6           0       -2.595152   -2.392059   -1.539932
     18          9           0       -2.036805   -3.523418   -1.068232
     19          9           0       -3.533238   -2.769662   -2.449645
     20          9           0       -1.661459   -1.703659   -2.237379
     21          6           0        0.093850   -0.890611   -0.354845
     22          8           0        0.227826   -2.109273   -0.368267
     23          7           0        1.053636   -0.035208   -0.841094
     24          6           0        2.278720   -0.608407   -1.370856
     25          9           0        2.737548    0.245395   -2.346203
     26          9           0        1.982971   -1.734082   -2.079290
     27          6           0        3.455407   -0.876037   -0.384867
     28          9           0        3.501480    0.146706    0.538156
     29          8           0        4.759433   -0.787749   -0.989894
     30          6           0        5.080667   -1.841348   -1.858838
     31          9           0        6.261779   -1.569153   -2.443897
     32          9           0        5.198551   -2.987062   -1.171874
     33          9           0        4.150764   -1.974462   -2.812317
     34          6           0        3.199105   -2.150893    0.417799
     35          9           0        4.281032   -2.456710    1.180471
     36          9           0        2.947373   -3.224566   -0.355663
     37          9           0        2.168293   -1.999786    1.279726
     38          6           0        1.085117    1.304559   -0.509097
     39          8           0        2.098216    1.992947   -0.591150
     40          1           0        0.597333    5.484024    1.737281
     41          1           0       -0.099739    5.008663    3.294994
     42          1           0       -1.160831    5.311461    1.908584
     43          1           0        0.871351    3.030314    2.174242
     44          1           0       -0.871612    2.861109    2.340361
     45          1           0        0.576183    3.806228   -0.193031
     46          1           0       -1.170076    3.618779   -0.053845
     47          1           0       -1.680700    1.121281   -1.167773
     48          1           0       -2.042720    1.457356    0.551356
 ---------------------------------------------------------------------

 SCF Done:  E(RCAM-B3LYP) =  -2800.38533794     A.U. after   13 cycles

 Alpha  occ. eigenvalues --  -24.84019 -24.83764 -24.83715 -24.83554 -24.83500
 Alpha  occ. eigenvalues --  -24.83381 -24.83234 -24.83205 -24.83144 -24.82969
 Alpha  occ. eigenvalues --  -24.82794 -24.82750 -24.82628 -24.82612 -24.82450
 Alpha  occ. eigenvalues --  -24.82100 -24.81853 -24.81194 -19.33174 -19.32671
 Alpha  occ. eigenvalues --  -19.22378 -19.21368 -14.51447 -14.49942 -14.46601
 Alpha  occ. eigenvalues --  -10.59624 -10.59329 -10.55453 -10.54716 -10.52873
 Alpha  occ. eigenvalues --  -10.52306 -10.49117 -10.48459 -10.44811 -10.43106
 Alpha  occ. eigenvalues --  -10.36648 -10.30824 -10.26329 -10.25140  -1.43126
 Alpha  occ. eigenvalues --   -1.43122  -1.41849  -1.41209  -1.39045  -1.37903
 Alpha  occ. eigenvalues --   -1.36126  -1.34718  -1.33662  -1.33491  -1.33123
 Alpha  occ. eigenvalues --   -1.33102  -1.33074  -1.32176  -1.32049  -1.31736
 Alpha  occ. eigenvalues --   -1.31586  -1.30353  -1.20662  -1.20415  -1.19946
 Alpha  occ. eigenvalues --   -1.15718  -1.10062  -1.07353  -1.03573  -0.93583
 Alpha  occ. eigenvalues --   -0.92324  -0.88218  -0.85509  -0.84425  -0.81870
 Alpha  occ. eigenvalues --   -0.81204  -0.80942  -0.79589  -0.77890  -0.75474
 Alpha  occ. eigenvalues --   -0.74993  -0.73147  -0.72835  -0.72139  -0.71272
 Alpha  occ. eigenvalues --   -0.71062  -0.70670  -0.70202  -0.69905  -0.69290
 Alpha  occ. eigenvalues --   -0.69011  -0.68455  -0.68230  -0.67734  -0.67361
 Alpha  occ. eigenvalues --   -0.67000  -0.66290  -0.65749  -0.64201  -0.64097
 Alpha  occ. eigenvalues --   -0.63065  -0.62096  -0.60396  -0.58937  -0.58325
 Alpha  occ. eigenvalues --   -0.57520  -0.57418  -0.56987  -0.56724  -0.56588
 Alpha  occ. eigenvalues --   -0.56530  -0.56293  -0.55707  -0.55568  -0.55157
 Alpha  occ. eigenvalues --   -0.54904  -0.54795  -0.54716  -0.54259  -0.53951
 Alpha  occ. eigenvalues --   -0.53698  -0.53580  -0.53270  -0.53167  -0.52765
 Alpha  occ. eigenvalues --   -0.52492  -0.52222  -0.51909  -0.51650  -0.51525
 Alpha  occ. eigenvalues --   -0.51474  -0.51005  -0.50865  -0.50794  -0.50674
 Alpha  occ. eigenvalues --   -0.50371  -0.49991  -0.49940  -0.49630  -0.49411
 Alpha  occ. eigenvalues --   -0.49151  -0.49055  -0.48985  -0.48218  -0.48038
 Alpha  occ. eigenvalues --   -0.47415  -0.47002  -0.46221  -0.45626  -0.44642
 Alpha  occ. eigenvalues --   -0.43623  -0.43288  -0.41920  -0.40188  -0.38247
 Alpha  occ. eigenvalues --   -0.37403  -0.36359  -0.35363  -0.32480
 Alpha virt. eigenvalues --    0.02358   0.05294   0.06141   0.07641   0.07675
 Alpha virt. eigenvalues --    0.08945   0.12655   0.14175   0.15731   0.16151
 Alpha virt. eigenvalues --    0.16490   0.16975   0.17527   0.18366   0.19270

 Mulliken charges:
               1
     1  C   -0.328621
     2  C   -0.175271
     3  C   -0.062087
     4  N   -0.526646
     5  C    0.105030
     6  N   -0.578764
     7  C    0.737579
     8  F   -0.241917
     9  F   -0.278808
    10  C    0.424552
    11  F   -0.271348
    12  O   -0.515255
    13  C    1.002895
    14  F   -0.248364
    15  F   -0.239431
    16  F   -0.243602
    17  C    0.816577
    18  F   -0.232738
    19  F   -0.255635
    20  F   -0.247334
    21  C    0.838489
    22  O   -0.523167
    23  N   -0.640381
    24  C    0.760421
    25  F   -0.279423
    26  F   -0.255675
    27  C    0.432772
    28  F   -0.269139
    29  O   -0.497414
    30  C    0.971854
    31  F   -0.240165
    32  F   -0.239013
    33  F   -0.232409
    34  C    0.821058
    35  F   -0.263445
    36  F   -0.245185
    37  F   -0.244592
    38  C    0.823228
    39  O   -0.533369
    40  H    0.115905
    41  H    0.115175
    42  H    0.109505
    43  H    0.120118
    44  H    0.105797
    45  H    0.152399
    46  H    0.127765
    47  H    0.155075
    48  H    0.173004
 Sum of Mulliken charges =   0.00000

 Dipole moment (field-independent basis, Debye):
    X=             -4.5849    Y=              4.4057    Z=              0.9691  Tot=              6.4320
 Quadrupole moment (field-independent basis, Debye-Ang):
   XX=           -218.5143   YY=           -210.5691   ZZ=           -209.2681
   XY=             -9.9352   XZ=              1.9835   YZ=              2.8579

 Normal termination of Gaussian 09 at Sun Mar  3 18:26:04 2024.
