 Gaussian 09, Revision D.01,
 Gaussian 09:  ES64L-G09RevD.01 24-Apr-2013

 ----------------------------------------------------------------------
 #p CAM-B3LYP/6-31G(d,p) SCRF=(PCM,Solvent=Generic,Read) NoSymm out=wfn
 ----------------------------------------------------------------------

 --------------
 Title AEP1_neu
 --------------
 Symbolic Z-matrix:
 Charge =  0 Multiplicity = 1

                          Input orientation:
 ---------------------------------------------------------------------
 Center     Atomic      Atomic             Coordinates (Angstroms)
 Number     Number       Type             X           Y           Z
 ---------------------------------------------------------------------
      1          9           0       -4.488838    3.136366   -0.825293
      2          6           0       -3.744091    2.233975   -1.499776
      3          9           0       -3.357929    2.816843   -2.650601
      4          6           0       -4.499154    0.932728   -1.704362
      5          9           0       -3.968108    0.252753   -2.760564
      6          9           0       -5.807056    1.073791   -1.975139
      7          6           0       -4.194269    0.188871   -0.431830
      8          9           0       -4.322765   -1.155665   -0.626136
      9          6           0       -5.062348    0.592655    0.746165
     10          9           0       -4.700158   -0.154740    1.830499
     11          6           0       -6.545329    0.370992    0.446129
     12          8           0       -7.250019    1.517500    0.323070
     13          8           0       -7.105563   -0.703565    0.295586
     14          9           0       -4.798258    1.877737    1.100780
     15          6           0       -2.720682    0.578121   -0.300615
     16          9           0       -2.036930   -0.108340   -1.272469
     17          6           0       -2.060684    0.258817    1.043447
     18          9           0       -2.590065    1.032462    2.029541
     19          6           0       -0.538975    0.446272    0.942610
     20          7           0        0.190641   -0.730194    1.030811
     21          6           0        1.638803   -0.749853    0.917108
     22          6           0        2.106817   -0.713719   -0.552276
     23          7           0        3.556450   -0.714547   -0.778100
     24          6           0        4.216394   -1.965312   -0.402954
     25          6           0        5.733359   -1.847803   -0.538088
     26          6           0        6.302456   -0.761865    0.375075
     27          6           0        5.250544    0.265514    0.788684
     28          6           0        4.230752    0.506341   -0.322874
     29          8           0        0.000329    1.541664    0.802488
     30          9           0       -2.358129   -1.035651    1.380975
     31          8           0       -2.602086    1.958262   -0.693764
     32          1           0       -8.172675    1.237313    0.135447
     33          1           0       -0.305976   -1.608898    1.147449
     34          1           0        1.973198   -1.667180    1.411355
     35          1           0        2.038966    0.103639    1.474725
     36          1           0        1.667204   -1.569451   -1.082411
     37          1           0        1.676797    0.166279   -1.049043
     38          1           0        3.863630   -2.771176   -1.057315
     39          1           0        3.979709   -2.256983    0.626774
     40          1           0        5.987788   -1.616380   -1.580615
     41          1           0        6.209782   -2.809015   -0.311962
     42          1           0        7.131604   -0.262671   -0.140537
     43          1           0        6.730314   -1.215576    1.277033
     44          1           0        5.742390    1.206089    1.061798
     45          1           0        4.730887   -0.086622    1.689015
     46          1           0        4.753981    0.935329   -1.187119
     47          1           0        3.517291    1.274894   -0.001760
 ---------------------------------------------------------------------

 SCF Done:  E(RCAM-B3LYP) =  -1989.34350127     A.U. after   13 cycles

 Alpha  occ. eigenvalues --  -24.84295 -24.82644 -24.82622 -24.82574 -24.82567
 Alpha  occ. eigenvalues --  -24.82495 -24.82194 -24.82024 -24.81849 -24.81613
 Alpha  occ. eigenvalues --  -19.31547 -19.30076 -19.25494 -19.21766 -14.45420
 Alpha  occ. eigenvalues --  -14.38898 -10.52539 -10.49374 -10.48961 -10.47821
 Alpha  occ. eigenvalues --  -10.46960 -10.44490 -10.42709 -10.39809 -10.30010
 Alpha  occ. eigenvalues --  -10.28166 -10.27621 -10.27251 -10.24994 -10.24948
 Alpha  occ. eigenvalues --  -10.24814  -1.40543  -1.38620  -1.38081  -1.37268
 Alpha  occ. eigenvalues --   -1.35438  -1.33720  -1.32610  -1.31727  -1.31097
 Alpha  occ. eigenvalues --   -1.30988  -1.22088  -1.19761  -1.13781  -1.12371
 Alpha  occ. eigenvalues --   -1.01862  -0.99727  -0.97535  -0.91062  -0.87888
 Alpha  occ. eigenvalues --   -0.87610  -0.84302  -0.82868  -0.81033  -0.77716
 Alpha  occ. eigenvalues --   -0.76561  -0.74213  -0.73771  -0.71321  -0.70774
 Alpha  occ. eigenvalues --   -0.70550  -0.69562  -0.68784  -0.67908  -0.66839
 Alpha  occ. eigenvalues --   -0.66373  -0.66241  -0.66036  -0.65119  -0.64371
 Alpha  occ. eigenvalues --   -0.64037  -0.63307  -0.62291  -0.59623  -0.58522
 Alpha  occ. eigenvalues --   -0.57859  -0.57481  -0.56704  -0.55955  -0.55746
 Alpha  occ. eigenvalues --   -0.55714  -0.55366  -0.55332  -0.54422  -0.54211
 Alpha  occ. eigenvalues --   -0.53853  -0.53131  -0.52721  -0.52512  -0.52190
 Alpha  occ. eigenvalues --   -0.51595  -0.51481  -0.51313  -0.50946  -0.50671
 Alpha  occ. eigenvalues --   -0.50251  -0.50079  -0.49546  -0.49240  -0.49113
 Alpha  occ. eigenvalues --   -0.48294  -0.47974  -0.47833  -0.45969  -0.45910
 Alpha  occ. eigenvalues --   -0.45728  -0.45322  -0.44238  -0.43926  -0.43460
 Alpha  occ. eigenvalues --   -0.42416  -0.41985  -0.41164  -0.40360  -0.38719
 Alpha  occ. eigenvalues --   -0.37722  -0.36961  -0.36594  -0.34543  -0.33476
 Alpha  occ. eigenvalues --   -0.25540
 Alpha virt. eigenvalues --    0.00073   0.02650   0.04374   0.07607   0.11212
 Alpha virt. eigenvalues --    0.12014   0.12139   0.13364   0.14207   0.14848
 Alpha virt. eigenvalues --    0.15681   0.16847   0.17463   0.18115   0.18533

 Mulliken charges:
               1
     1  F   -0.244378
     2  C    0.774545
     3  F   -0.242903
     4  C    0.521097
     5  F   -0.267266
     6  F   -0.252213
     7  C    0.173849
     8  F   -0.282953
     9  C    0.626475
    10  F   -0.272310
    11  C    0.518279
    12  O   -0.470050
    13  O   -0.441531
    14  F   -0.263632
    15  C    0.474681
    16  F   -0.284825
    17  C    0.580569
    18  F   -0.265753
    19  C    0.533085
    20  N   -0.544012
    21  C   -0.055329
    22  C   -0.045730
    23  N   -0.435759
    24  C   -0.025768
    25  C   -0.205219
    26  C   -0.182597
    27  C   -0.199853
    28  C   -0.044530
    29  O   -0.509035
    30  F   -0.292775
    31  O   -0.483290
    32  H    0.361065
    33  H    0.291165
    34  H    0.116856
    35  H    0.140106
    36  H    0.097349
    37  H    0.125202
    38  H    0.097965
    39  H    0.072679
    40  H    0.108935
    41  H    0.098803
    42  H    0.099759
    43  H    0.095496
    44  H    0.099521
    45  H    0.095389
    46  H    0.097989
    47  H    0.110851
 Sum of Mulliken charges =   0.00000

 Dipole moment (field-independent basis, Debye):
    X=              0.0691    Y=             -2.3957    Z=              1.0181  Tot=              2.6040
 Quadrupole moment (field-independent basis, Debye-Ang):
   XX=           -144.9314   YY=           -177.3914   ZZ=           -175.1006
   XY=            -12.1984   XZ=              5.0866   YZ=             -4.0053

 Normal termination of Gaussian 09 at Mon Feb  3 21:47:37 2025.
